# vtk DataFile Version 2.0
one liner comment goes here
ASCII
DATASET STRUCTURED_POINTS
DIMENSIONS 50 50 50
ORIGIN 0 0 0
SPACING 1 1 1
POINT_DATA 125000
SCALARS anyoldnameforthisvolume float
LOOKUP_TABLE default
0.876862 0.875064 0.873285 0.871531 0.869807 0.868119 0.866473 0.864875 0.863332 0.861849 0.860433 0.859090 0.857826 0.856649 0.855565 0.854583 0.853710 0.852953 0.852323 0.851826 0.851469 0.851261 0.851204 0.851305 0.851562 0.851976 0.852542 0.853255 0.854106 0.855086 0.856181 0.857380 0.858669 0.860036 0.861467 0.862952 0.864482 0.866047 0.867643 0.869264 0.870909 0.872578 0.874270 0.875988 0.877736 0.879515 0.881330 0.883183 0.885074 0.887005 0.875253 0.873372 0.871508 0.869666 0.867852 0.866073 0.864335 0.862644 0.861007 0.859429 0.857918 0.856480 0.855122 0.853851 0.852676 0.851605 0.850646 0.849810 0.849106 0.848544 0.848132 0.847881 0.847795 0.847880 0.848139 0.848570 0.849170 0.849932 0.850847 0.851904 0.853088 0.854386 0.855782 0.857261 0.858810 0.860415 0.862066 0.863753 0.865470 0.867212 0.868976 0.870760 0.872567 0.874396 0.876251 0.878134 0.880049 0.881996 0.883977 0.885992 0.873662 0.871695 0.869741 0.867807 0.865899 0.864024 0.862187 0.860397 0.858658 0.856979 0.855364 0.853823 0.852361 0.850987 0.849711 0.848540 0.847487 0.846561 0.845774 0.845138 0.844665 0.844365 0.844245 0.844314 0.844574 0.845025 0.845664 0.846483 0.847471 0.848616 0.849902 0.851311 0.852827 0.854432 0.856110 0.857847 0.859630 0.861449 0.863297 0.865166 0.867055 0.868962 0.870887 0.872831 0.874796 0.876785 0.878800 0.880842 0.882913 0.885011 0.872094 0.870036 0.867988 0.865957 0.863950 0.861972 0.860031 0.858134 0.856286 0.854496 0.852769 0.851115 0.849539 0.848052 0.846663 0.845382 0.844222 0.843195 0.842315 0.841596 0.841053 0.840697 0.840541 0.840591 0.840854 0.841330 0.842014 0.842899 0.843973 0.845219 0.846619 0.848155 0.849805 0.851550 0.853372 0.855253 0.857181 0.859142 0.861129 0.863135 0.865156 0.867190 0.869237 0.871299 0.873376 0.875472 0.877588 0.879725 0.881885 0.884065 0.870554 0.868401 0.866255 0.864122 0.862009 0.859923 0.857870 0.855857 0.853892 0.851981 0.850132 0.848353 0.846652 0.845039 0.843524 0.842120 0.840840 0.839699 0.838714 0.837901 0.837278 0.836861 0.836664 0.836696 0.836964 0.837470 0.838209 0.839172 0.840345 0.841708 0.843240 0.844919 0.846720 0.848622 0.850602 0.852642 0.854725 0.856840 0.858976 0.861125 0.863284 0.865451 0.867625 0.869807 0.871998 0.874202 0.876419 0.878650 0.880897 0.883158 0.869046 0.866795 0.864547 0.862306 0.860081 0.857879 0.855705 0.853568 0.851475 0.849433 0.847450 0.845534 0.843694 0.841940 0.840285 0.838742 0.837327 0.836058 0.834954 0.834036 0.833324 0.832838 0.832596 0.832610 0.832888 0.833432 0.834238 0.835294 0.836583 0.838082 0.839766 0.841607 0.843579 0.845654 0.847809 0.850022 0.852275 0.854554 0.856848 0.859148 0.861452 0.863755 0.866058 0.868362 0.870669 0.872980 0.875297 0.877622 0.879955 0.882294 0.867579 0.865226 0.862869 0.860516 0.858172 0.855845 0.853543 0.851272 0.849039 0.846853 0.844722 0.842654 0.840659 0.838749 0.836936 0.835237 0.833670 0.832256 0.831018 0.829980 0.829169 0.828607 0.828317 0.828314 0.828609 0.829203 0.830091 0.831259 0.832685 0.834342 0.836200 0.838227 0.840391 0.842660 0.845007 0.847408 0.849844 0.852297 0.854757 0.857216 0.859668 0.862112 0.864547 0.866974 0.869396 0.871814 0.874230 0.876647 0.879063 0.881479 0.866159 0.863700 0.861231 0.858758 0.856288 0.853829 0.851388 0.848971 0.846587 0.844243 0.841949 0.839712 0.837545 0.835458 0.833469 0.831594 0.829855 0.828276 0.826886 0.825715 0.824792 0.824148 0.823808 0.823792 0.824113 0.824772 0.825761 0.827064 0.828653 0.830495 0.832554 0.834792 0.837170 0.839654 0.842211 0.844816 0.847446 0.850085 0.852719 0.855341 0.857947 0.860533 0.863101 0.865651 0.868187 0.870711 0.873224 0.875729 0.878226 0.880715 0.864795 0.862226 0.859639 0.857041 0.854439 0.851838 0.849247 0.846673 0.844124 0.841607 0.839131 0.836708 0.834347 0.832064 0.829875 0.827801 0.825867 0.824103 0.822542 0.821219 0.820173 0.819439 0.819049 0.819027 0.819386 0.820130 0.821246 0.822712 0.824494 0.826553 0.828843 0.831319 0.833937 0.836657 0.839443 0.842267 0.845103 0.847935 0.850750 0.853540 0.856301 0.859031 0.861731 0.864404 0.867052 0.869678 0.872285 0.874875 0.877450 0.880009 0.863497 0.860815 0.858106 0.855377 0.852634 0.849883 0.847132 0.844388 0.841658 0.838951 0.836277 0.833645 0.831069 0.828564 0.826150 0.823852 0.821698 0.819723 0.817968 0.816476 0.815293 0.814463 0.814024 0.814005 0.814422 0.815275 0.816549 0.818213 0.820226 0.822536 0.825091 0.827836 0.830720 0.833697 0.836730 0.839785 0.842838 0.845870 0.848871 0.851831 0.854747 0.857620 0.860451 0.863242 0.865999 0.868724 0.871421 0.874092 0.876740 0.879365 0.862275 0.859477 0.856643 0.853778 0.850887 0.847978 0.845056 0.842128 0.839203 0.836289 0.833395 0.830532 0.827716 0.824963 0.822297 0.819744 0.817340 0.815127 0.813154 0.811472 0.810138 0.809205 0.808721 0.808720 0.809218 0.810214 0.811685 0.813590 0.815875 0.818477 0.821333 0.824377 0.827553 0.830809 0.834102 0.837400 0.840677 0.843914 0.847101 0.850231 0.853301 0.856314 0.859271 0.862177 0.865037 0.867856 0.870638 0.873385 0.876101 0.878787 0.861141 0.858227 0.855265 0.852260 0.849216 0.846139 0.843036 0.839913 0.836778 0.833638 0.830503 0.827387 0.824304 0.821275 0.818324 0.815486 0.812801 0.810318 0.808097 0.806203 0.804703 0.803663 0.803141 0.803177 0.803789 0.804969 0.806683 0.808878 0.811484 0.814422 0.817615 0.820990 0.824481 0.828032 0.831599 0.835147 0.838651 0.842093 0.845465 0.848761 0.851981 0.855127 0.858205 0.861220 0.864177 0.867084 0.869943 0.872761 0.875539 0.878281 0.860110 0.857079 0.853988 0.850840 0.847639 0.844389 0.841097 0.837767 0.834407 0.831024 0.827630 0.824236 0.820860 0.817524 0.814258 0.811100 0.808098 0.805312 0.802813 0.800680 0.798997 0.797846 0.797297 0.797396 0.798162 0.799578 0.801594 0.804136 0.807114 0.810433 0.814001 0.817733 0.821559 0.825418 0.829264 0.833064 0.836793 0.840436 0.843987 0.847442 0.850803 0.854076 0.857266 0.860381 0.863428 0.866414 0.869345 0.872225 0.875060 0.877850 0.859195 0.856050 0.852831 0.849540 0.846180 0.842754 0.839266 0.835721 0.832125 0.828485 0.824812 0.821119 0.817425 0.813754 0.810140 0.806627 0.803272 0.800146 0.797335 0.794935 0.793052 0.791787 0.791225 0.791424 0.792396 0.794109 0.796492 0.799444 0.802849 0.806592 0.810566 0.814677 0.818849 0.823020 0.827145 0.831191 0.835138 0.838973 0.842692 0.846295 0.849787 0.853175 0.856466 0.859671 0.862798 0.865854 0.868848 0.871784 0.874667 0.877500 0.858412 0.855157 0.851814 0.848383 0.844865 0.841262 0.837577 0.833813 0.829974 0.826067 0.822102 0.818094 0.814060 0.810030 0.806039 0.802139 0.798396 0.794893 0.791734 0.789037 0.786933 0.785552 0.784999 0.785341 0.786583 0.788669 0.791493 0.794919 0.798802 0.803004 0.807405 0.811904 0.816422 0.820899 0.825292 0.829571 0.833721 0.837732 0.841604 0.845340 0.848948 0.852437 0.855817 0.859100 0.862296 0.865412 0.868459 0.871441 0.874365 0.877234 0.857777 0.854420 0.850959 0.847394 0.843724 0.839949 0.836070 0.832087 0.828005 0.823829 0.819567 0.815233 0.810848 0.806442 0.802054 0.797743 0.793582 0.789670 0.786128 0.783103 0.780759 0.779261 0.778744 0.779284 0.780872 0.783414 0.786754 0.790712 0.795111 0.799791 0.804623 0.809503 0.814354 0.819117 0.823756 0.828247 0.832577 0.836742 0.840746 0.844596 0.848301 0.851875 0.855330 0.858677 0.861928 0.865094 0.868183 0.871203 0.874159 0.877056 0.857306 0.853855 0.850288 0.846599 0.842788 0.838851 0.834788 0.830596 0.826279 0.821839 0.817285 0.812630 0.807894 0.803109 0.798319 0.793586 0.788993 0.784652 0.780704 0.777327 0.774726 0.773114 0.772668 0.773473 0.775492 0.778570 0.782489 0.787015 0.791941 0.797093 0.802336 0.807568 0.812718 0.817734 0.822586 0.827255 0.831735 0.836027 0.840138 0.844078 0.847861 0.851501 0.855012 0.858408 0.861701 0.864903 0.868024 0.871071 0.874051 0.876967 0.857013 0.853483 0.849822 0.846026 0.842089 0.838007 0.833776 0.829394 0.824860 0.820176 0.815349 0.810392 0.805325 0.800180 0.795005 0.789865 0.784852 0.780088 0.775735 0.772002 0.769144 0.767435 0.767103 0.768245 0.770770 0.774442 0.778962 0.784050 0.789473 0.795052 0.800654 0.806186 0.811584 0.816804 0.821823 0.826630 0.831222 0.835607 0.839795 0.843799 0.847635 0.851320 0.854870 0.858298 0.861619 0.864845 0.867986 0.871050 0.874043 0.876971 0.856912 0.853319 0.849583 0.845698 0.841656 0.837452 0.833080 0.828535 0.823815 0.818919 0.813855 0.808634 0.803277 0.797818 0.792306 0.786812 0.781431 0.776297 0.771589 0.767545 0.764471 0.762710 0.762548 0.764080 0.767142 0.771395 0.776469 0.782044 0.787878 0.793797 0.799676 0.805430 0.811005 0.816367 0.821498 0.826393 0.831056 0.835496 0.839728 0.843767 0.847632 0.851340 0.854908 0.858352 0.861686 0.864922 0.868070 0.871141 0.874139 0.877070 0.857014 0.853376 0.849587 0.845636 0.841517 0.837221 0.832740 0.828070 0.823205 0.818145 0.812896 0.807470 0.801890 0.796192 0.790427 0.784672 0.779028 0.773638 0.768696 0.764466 0.761294 0.759576 0.759640 0.761558 0.765084 0.769795 0.775274 0.781186 0.787293 0.793425 0.799469 0.805349 0.811018 0.816448 0.821629 0.826559 0.831245 0.835700 0.839941 0.843986 0.847853 0.851561 0.855128 0.858570 0.861901 0.865133 0.868278 0.871344 0.874337 0.877263 0.857326 0.853666 0.849846 0.845858 0.841692 0.837339 0.832790 0.828039 0.823081 0.817917 0.812551 0.806998 0.801283 0.795445 0.789543 0.783659 0.777904 0.772431 0.767448 0.763236 0.760159 0.758625 0.758945 0.761148 0.764942 0.769880 0.775536 0.781582 0.787783 0.793979 0.800061 0.805960 0.811632 0.817054 0.822219 0.827127 0.831790 0.836220 0.840435 0.844454 0.848298 0.851983 0.855529 0.858951 0.862264 0.865480 0.868609 0.871660 0.874639 0.877551 0.857852 0.854192 0.850369 0.846373 0.842194 0.837823 0.833251 0.828471 0.823480 0.818278 0.812873 0.807282 0.801534 0.795675 0.789770 0.783910 0.778219 0.772860 0.768052 0.764081 0.761295 0.760056 0.760608 0.762936 0.766757 0.771661 0.777252 0.783219 0.789336 0.795444 0.801437 0.807248 0.812833 0.818171 0.823256 0.828089 0.832680 0.837045 0.841201 0.845166 0.848960 0.852601 0.856107 0.859493 0.862774 0.865960 0.869062 0.872088 0.875043 0.877934 0.858593 0.854957 0.851157 0.847183 0.843027 0.838679 0.834130 0.829376 0.824414 0.819246 0.813884 0.808348 0.802674 0.796913 0.791139 0.785451 0.779985 0.774912 0.770452 0.766877 0.764490 0.763574 0.764292 0.766603 0.770265 0.774934 0.780267 0.785981 0.791860 0.797748 0.803540 0.809166 0.814583 0.819768 0.824713 0.829421 0.833899 0.838162 0.842226 0.846110 0.849832 0.853408 0.856856 0.860191 0.863425 0.866569 0.869633 0.872624 0.875548 0.878409 0.859543 0.855954 0.852204 0.848284 0.844186 0.839900 0.835422 0.830747 0.825874 0.820810 0.815570 0.810178 0.804675 0.799119 0.793590 0.788197 0.783077 0.778404 0.774387 0.771265 0.769285 0.768651 0.769463 0.771665 0.775064 0.779385 0.784342 0.789685 0.795214 0.800781 0.806282 0.811645 0.816825 0.821799 0.826554 0.831092 0.835419 0.839548 0.843494 0.847272 0.850900 0.854394 0.857768 0.861037 0.864212 0.867303 0.870319 0.873267 0.876151 0.878976 0.860694 0.857174 0.853499 0.849662 0.845654 0.841470 0.837105 0.832557 0.827830 0.822932 0.817882 0.812710 0.807459 0.802194 0.796998 0.791981 0.787280 0.783059 0.779507 0.776826 0.775205 0.774788 0.775630 0.777676 0.780769 0.784693 0.789214 0.794120 0.799231 0.804411 0.809557 0.814599 0.819491 0.824207 0.828732 0.833066 0.837211 0.841180 0.844983 0.848635 0.852151 0.855546 0.858832 0.862023 0.865128 0.868156 0.871116 0.874012 0.876849 0.879630 0.862033 0.858602 0.855025 0.851296 0.847409 0.843360 0.839146 0.834768 0.830232 0.825552 0.820748 0.815853 0.810916 0.806000 0.801191 0.796595 0.792342 0.788580 0.785473 0.783185 0.781859 0.781594 0.782420 0.784283 0.787059 0.790575 0.794644 0.799086 0.803746 0.808500 0.813253 0.817937 0.822506 0.826931 0.831197 0.835299 0.839240 0.843026 0.846669 0.850178 0.853568 0.856851 0.860038 0.863139 0.866165 0.869122 0.872016 0.874854 0.877637 0.880369 0.863545 0.860220 0.856761 0.853163 0.849421 0.845533 0.841501 0.837326 0.833019 0.828594 0.824075 0.819499 0.814912 0.810380 0.805984 0.801823 0.798015 0.794691 0.791987 0.790034 0.788942 0.788777 0.789553 0.791223 0.793685 0.796803 0.800425 0.804403 0.808604 0.812919 0.817261 0.821568 0.825793 0.829908 0.833896 0.837750 0.841469 0.845059 0.848527 0.851882 0.855134 0.858294 0.861372 0.864376 0.867314 0.870192 0.873015 0.875788 0.878512 0.881189 0.865210 0.862006 0.858681 0.855231 0.851654 0.847950 0.844121 0.840173 0.836119 0.831975 0.827767 0.823530 0.819313 0.815176 0.811196 0.807462 0.804077 0.801154 0.798805 0.797134 0.796221 0.796116 0.796821 0.798295 0.800456 0.803195 0.806391 0.809920 0.813671 0.817551 0.821482 0.825406 0.829281 0.833078 0.836778 0.840374 0.843863 0.847247 0.850532 0.853723 0.856830 0.859860 0.862822 0.865722 0.868566 0.871359 0.874105 0.876808 0.879467 0.882085 0.867008 0.863937 0.860758 0.857469 0.854070 0.850564 0.846954 0.843249 0.839462 0.835611 0.831724 0.827834 0.823987 0.820241 0.816663 0.813333 0.810339 0.807775 0.805733 0.804294 0.803520 0.803444 0.804064 0.805347 0.807225 0.809611 0.812406 0.815512 0.818836 0.822297 0.825828 0.829377 0.832905 0.836384 0.839797 0.843132 0.846387 0.849562 0.852658 0.855682 0.858638 0.861534 0.864374 0.867165 0.869911 0.872615 0.875280 0.877907 0.880499 0.883053 0.868919 0.865988 0.862963 0.859844 0.856632 0.853332 0.849949 0.846492 0.842977 0.839422 0.835854 0.832306 0.828819 0.825446 0.822246 0.819288 0.816647 0.814400 0.812621 0.811373 0.810703 0.810635 0.811166 0.812265 0.813880 0.815941 0.818370 0.821084 0.824008 0.827075 0.830226 0.833415 0.836608 0.839778 0.842908 0.845987 0.849009 0.851974 0.854882 0.857737 0.860541 0.863299 0.866016 0.868695 0.871339 0.873950 0.876531 0.879080 0.881600 0.884088 0.870921 0.868135 0.865269 0.862324 0.859303 0.856211 0.853056 0.849847 0.846601 0.843336 0.840078 0.836856 0.833710 0.830684 0.827831 0.825210 0.822882 0.820910 0.819354 0.818262 0.817671 0.817597 0.818037 0.818966 0.820341 0.822108 0.824202 0.826560 0.829117 0.831818 0.834615 0.837466 0.840341 0.843215 0.846074 0.848904 0.851701 0.854460 0.857183 0.859869 0.862521 0.865142 0.867734 0.870300 0.872841 0.875357 0.877851 0.880320 0.882766 0.885185 0.872994 0.870355 0.867649 0.864878 0.862047 0.859162 0.856231 0.853264 0.850278 0.847291 0.844325 0.841409 0.838578 0.835870 0.833331 0.831009 0.828956 0.827221 0.825852 0.824888 0.824356 0.824268 0.824620 0.825392 0.826552 0.828054 0.829849 0.831885 0.834110 0.836478 0.838948 0.841486 0.844064 0.846661 0.849262 0.851856 0.854435 0.856997 0.859539 0.862061 0.864564 0.867049 0.869517 0.871969 0.874406 0.876827 0.879232 0.881620 0.883990 0.886339 0.875118 0.872625 0.870078 0.867479 0.864834 0.862150 0.859434 0.856700 0.853960 0.851233 0.848540 0.845906 0.843361 0.840940 0.838680 0.836621 0.834806 0.833274 0.832063 0.831203 0.830714 0.830606 0.830876 0.831508 0.832475 0.833743 0.835272 0.837021 0.838949 0.841016 0.843190 0.845442 0.847747 0.850087 0.852447 0.854818 0.857192 0.859564 0.861933 0.864297 0.866655 0.869007 0.871353 0.873693 0.876026 0.878352 0.880668 0.882974 0.885266 0.887543 0.877275 0.874926 0.872534 0.870102 0.867636 0.865144 0.862634 0.860117 0.857608 0.855122 0.852679 0.850301 0.848014 0.845848 0.843833 0.842003 0.840392 0.839033 0.837953 0.837177 0.836721 0.836592 0.836787 0.837294 0.838091 0.839154 0.840449 0.841945 0.843608 0.845408 0.847316 0.849309 0.851365 0.853468 0.855606 0.857770 0.859951 0.862146 0.864350 0.866562 0.868780 0.871004 0.873231 0.875461 0.877692 0.879923 0.882151 0.884374 0.886589 0.888793 0.879449 0.877240 0.874997 0.872725 0.870430 0.868119 0.865802 0.863488 0.861191 0.858926 0.856709 0.854561 0.852504 0.850562 0.848762 0.847130 0.845694 0.844479 0.843509 0.842802 0.842370 0.842219 0.842347 0.842744 0.843394 0.844277 0.845369 0.846644 0.848075 0.849637 0.851309 0.853069 0.854900 0.856789 0.858724 0.860696 0.862698 0.864726 0.866776 0.868844 0.870929 0.873029 0.875141 0.877264 0.879396 0.881533 0.883674 0.885815 0.887952 0.890084 0.881626 0.879550 0.877450 0.875329 0.873195 0.871055 0.868916 0.866789 0.864686 0.862621 0.860608 0.858664 0.856810 0.855064 0.853450 0.851988 0.850700 0.849608 0.848730 0.848078 0.847665 0.847493 0.847561 0.847863 0.848386 0.849114 0.850030 0.851112 0.852340 0.853695 0.855157 0.856710 0.858341 0.860036 0.861786 0.863584 0.865421 0.867295 0.869200 0.871133 0.873092 0.875073 0.877075 0.879095 0.881129 0.883176 0.885230 0.887290 0.889351 0.891410 0.883793 0.881845 0.879879 0.877901 0.875917 0.873934 0.871960 0.870004 0.868077 0.866191 0.864360 0.862598 0.860921 0.859346 0.857892 0.856575 0.855414 0.854425 0.853622 0.853017 0.852617 0.852426 0.852443 0.852663 0.853077 0.853673 0.854436 0.855352 0.856405 0.857578 0.858856 0.860227 0.861679 0.863201 0.864785 0.866423 0.868110 0.869841 0.871612 0.873418 0.875258 0.877128 0.879025 0.880945 0.882886 0.884843 0.886814 0.888794 0.890779 0.892766 0.885940 0.884112 0.882273 0.880428 0.878583 0.876745 0.874922 0.873121 0.871353 0.869628 0.867957 0.866355 0.864833 0.863406 0.862089 0.860897 0.859843 0.858941 0.858202 0.857634 0.857245 0.857037 0.857010 0.857160 0.857481 0.857964 0.858598 0.859372 0.860272 0.861288 0.862406 0.863617 0.864910 0.866278 0.867712 0.869207 0.870757 0.872357 0.874004 0.875693 0.877422 0.879186 0.880982 0.882808 0.884658 0.886529 0.888418 0.890320 0.892231 0.894147 0.888059 0.886343 0.884622 0.882901 0.881184 0.879479 0.877793 0.876132 0.874506 0.872924 0.871396 0.869933 0.868547 0.867248 0.866050 0.864964 0.864001 0.863172 0.862486 0.861950 0.861570 0.861347 0.861282 0.861374 0.861616 0.862003 0.862527 0.863179 0.863950 0.864829 0.865808 0.866879 0.868033 0.869264 0.870565 0.871931 0.873356 0.874838 0.876370 0.877950 0.879575 0.881240 0.882942 0.884676 0.886440 0.888229 0.890039 0.891865 0.893703 0.895548 0.890141 0.888531 0.886920 0.885312 0.883714 0.882130 0.880567 0.879033 0.877534 0.876079 0.874677 0.873337 0.872068 0.870881 0.869784 0.868789 0.867903 0.867137 0.866496 0.865986 0.865613 0.865379 0.865283 0.865325 0.865501 0.865808 0.866238 0.866787 0.867446 0.868209 0.869068 0.870016 0.871049 0.872159 0.873341 0.874591 0.875904 0.877277 0.878705 0.880185 0.881713 0.883285 0.884897 0.886546 0.888227 0.889936 0.891669 0.893422 0.895189 0.896966 0.892183 0.890670 0.889161 0.887658 0.886167 0.884694 0.883243 0.881822 0.880437 0.879095 0.877804 0.876571 0.875405 0.874313 0.873305 0.872387 0.871568 0.870854 0.870251 0.869765 0.869399 0.869154 0.869033 0.869034 0.869156 0.869394 0.869747 0.870207 0.870772 0.871434 0.872189 0.873032 0.873958 0.874962 0.876039 0.877186 0.878398 0.879672 0.881005 0.882392 0.883830 0.885315 0.886843 0.888411 0.890013 0.891647 0.893306 0.894987 0.896685 0.898395 0.894179 0.892758 0.891342 0.889935 0.888543 0.887169 0.885820 0.884500 0.883216 0.881974 0.880781 0.879642 0.878565 0.877557 0.876625 0.875774 0.875012 0.874344 0.873774 0.873308 0.872948 0.872696 0.872554 0.872522 0.872598 0.872780 0.873066 0.873453 0.873937 0.874514 0.875180 0.875932 0.876765 0.877675 0.878659 0.879714 0.880835 0.882020 0.883266 0.884568 0.885922 0.887327 0.888776 0.890267 0.891795 0.893355 0.894944 0.896556 0.898187 0.899833 0.896128 0.894790 0.893460 0.892141 0.890839 0.889556 0.888298 0.887069 0.885876 0.884722 0.883615 0.882559 0.881561 0.880625 0.879759 0.878966 0.878253 0.877625 0.877084 0.876636 0.876282 0.876026 0.875867 0.875808 0.875846 0.875982 0.876213 0.876538 0.876954 0.877458 0.878048 0.878720 0.879472 0.880300 0.881202 0.882175 0.883215 0.884320 0.885485 0.886709 0.887987 0.889316 0.890692 0.892110 0.893567 0.895058 0.896579 0.898125 0.899691 0.901274 0.898026 0.896765 0.895515 0.894277 0.893055 0.891855 0.890679 0.889532 0.888419 0.887345 0.886314 0.885331 0.884401 0.883529 0.882720 0.881979 0.881309 0.880715 0.880200 0.879768 0.879421 0.879162 0.878991 0.878909 0.878917 0.879014 0.879200 0.879473 0.879831 0.880274 0.880798 0.881402 0.882084 0.882841 0.883670 0.884570 0.885537 0.886569 0.887662 0.888814 0.890021 0.891280 0.892587 0.893937 0.895326 0.896751 0.898207 0.899690 0.901194 0.902716 0.899872 0.898684 0.897506 0.896341 0.895194 0.894068 0.892966 0.891893 0.890852 0.889848 0.888885 0.887966 0.887097 0.886281 0.885523 0.884826 0.884194 0.883631 0.883140 0.882723 0.882383 0.882122 0.881942 0.881843 0.881827 0.881892 0.882040 0.882270 0.882580 0.882970 0.883439 0.883984 0.884605 0.885299 0.886064 0.886899 0.887801 0.888767 0.889795 0.890881 0.892023 0.893216 0.894458 0.895744 0.897070 0.898433 0.899827 0.901248 0.902693 0.904156 0.901667 0.900544 0.899433 0.898336 0.897257 0.896198 0.895163 0.894156 0.893180 0.892239 0.891336 0.890475 0.889659 0.888893 0.888180 0.887522 0.886924 0.886389 0.885918 0.885516 0.885184 0.884923 0.884736 0.884625 0.884589 0.884629 0.884746 0.884939 0.885209 0.885555 0.885976 0.886471 0.887039 0.887678 0.888387 0.889164 0.890007 0.890914 0.891882 0.892908 0.893989 0.895122 0.896303 0.897529 0.898795 0.900098 0.901433 0.902796 0.904183 0.905590 0.903411 0.902348 0.901298 0.900263 0.899245 0.898248 0.897274 0.896326 0.895409 0.894524 0.893674 0.892865 0.892097 0.891375 0.890702 0.890080 0.889512 0.889002 0.888551 0.888162 0.887838 0.887579 0.887389 0.887267 0.887216 0.887236 0.887328 0.887492 0.887728 0.888036 0.888416 0.888868 0.889390 0.889981 0.890640 0.891366 0.892157 0.893010 0.893923 0.894894 0.895919 0.896996 0.898121 0.899290 0.900500 0.901746 0.903025 0.904332 0.905664 0.907016 0.905103 0.904096 0.903103 0.902124 0.901162 0.900221 0.899302 0.898409 0.897543 0.896709 0.895908 0.895144 0.894420 0.893737 0.893100 0.892510 0.891970 0.891483 0.891050 0.890675 0.890359 0.890104 0.889911 0.889783 0.889720 0.889724 0.889796 0.889935 0.890143 0.890420 0.890766 0.891180 0.891662 0.892211 0.892827 0.893507 0.894250 0.895054 0.895918 0.896838 0.897812 0.898836 0.899908 0.901024 0.902181 0.903373 0.904599 0.905853 0.907132 0.908431 0.906744 0.905790 0.904848 0.903921 0.903011 0.902120 0.901252 0.900407 0.899589 0.898801 0.898044 0.897322 0.896636 0.895990 0.895385 0.894824 0.894309 0.893843 0.893428 0.893066 0.892759 0.892508 0.892315 0.892183 0.892112 0.892103 0.892158 0.892278 0.892463 0.892713 0.893030 0.893412 0.893859 0.894372 0.894948 0.895587 0.896288 0.897048 0.897867 0.898740 0.899666 0.900642 0.901665 0.902731 0.903837 0.904979 0.906153 0.907357 0.908585 0.909834 0.908337 0.907430 0.906536 0.905657 0.904794 0.903950 0.903127 0.902327 0.901552 0.900806 0.900089 0.899404 0.898754 0.898140 0.897565 0.897031 0.896540 0.896094 0.895695 0.895346 0.895047 0.894802 0.894611 0.894477 0.894400 0.894382 0.894424 0.894528 0.894693 0.894922 0.895213 0.895567 0.895985 0.896465 0.897007 0.897609 0.898272 0.898992 0.899769 0.900600 0.901482 0.902413 0.903389 0.904408 0.905466 0.906561 0.907687 0.908842 0.910022 0.911223 0.876553 0.874755 0.872979 0.871230 0.869514 0.867837 0.866205 0.864623 0.863097 0.861633 0.860237 0.858913 0.857668 0.856507 0.855438 0.854466 0.853600 0.852846 0.852214 0.851709 0.851342 0.851118 0.851043 0.851122 0.851357 0.851746 0.852288 0.852977 0.853803 0.854759 0.855831 0.857007 0.858273 0.859616 0.861023 0.862484 0.863987 0.865526 0.867094 0.868688 0.870306 0.871949 0.873618 0.875316 0.877049 0.878820 0.880633 0.882493 0.884401 0.886357 0.874942 0.873063 0.871203 0.869370 0.867568 0.865803 0.864083 0.862413 0.860798 0.859245 0.857758 0.856345 0.855010 0.853760 0.852602 0.851544 0.850593 0.849759 0.849051 0.848479 0.848052 0.847779 0.847668 0.847725 0.847952 0.848351 0.848918 0.849648 0.850532 0.851558 0.852714 0.853983 0.855352 0.856804 0.858326 0.859904 0.861528 0.863188 0.864877 0.866591 0.868328 0.870089 0.871874 0.873686 0.875529 0.877408 0.879324 0.881283 0.883284 0.885327 0.873350 0.871386 0.869440 0.867517 0.865625 0.863769 0.861956 0.860191 0.858481 0.856832 0.855248 0.853737 0.852305 0.850957 0.849702 0.848547 0.847502 0.846578 0.845785 0.845136 0.844641 0.844313 0.844160 0.844191 0.844411 0.844820 0.845417 0.846195 0.847144 0.848252 0.849502 0.850878 0.852362 0.853936 0.855585 0.857293 0.859047 0.860838 0.862657 0.864500 0.866364 0.868248 0.870154 0.872084 0.874040 0.876028 0.878049 0.880106 0.882200 0.884330 0.871782 0.869730 0.867693 0.865678 0.863690 0.861736 0.859824 0.857959 0.856146 0.854393 0.852705 0.851088 0.849548 0.848092 0.846729 0.845467 0.844318 0.843292 0.842404 0.841667 0.841095 0.840704 0.840505 0.840507 0.840719 0.841142 0.841774 0.842608 0.843633 0.844833 0.846192 0.847688 0.849302 0.851014 0.852803 0.854654 0.856551 0.858484 0.860444 0.862423 0.864421 0.866434 0.868465 0.870515 0.872588 0.874686 0.876811 0.878967 0.881153 0.883368 0.870243 0.868099 0.865967 0.863854 0.861765 0.859709 0.857690 0.855717 0.853795 0.851929 0.850127 0.848393 0.846735 0.845160 0.843677 0.842295 0.841028 0.839888 0.838891 0.838055 0.837398 0.836935 0.836683 0.836655 0.836860 0.837300 0.837975 0.838876 0.839990 0.841299 0.842782 0.844416 0.846177 0.848041 0.849987 0.851995 0.854049 0.856135 0.858244 0.860369 0.862506 0.864654 0.866814 0.868988 0.871178 0.873387 0.875617 0.877870 0.880147 0.882446 0.868738 0.866499 0.864268 0.862051 0.859856 0.857689 0.855557 0.853468 0.851426 0.849438 0.847510 0.845648 0.843860 0.842152 0.840535 0.839019 0.837619 0.836350 0.835232 0.834284 0.833528 0.832986 0.832677 0.832616 0.832816 0.833281 0.834008 0.834990 0.836209 0.837645 0.839272 0.841064 0.842991 0.845027 0.847146 0.849326 0.851549 0.853800 0.856068 0.858346 0.860630 0.862918 0.865210 0.867509 0.869818 0.872138 0.874472 0.876822 0.879187 0.881567 0.867274 0.864936 0.862601 0.860275 0.857967 0.855682 0.853428 0.851212 0.849040 0.846919 0.844853 0.842849 0.840916 0.839060 0.837292 0.835625 0.834075 0.832661 0.831405 0.830331 0.829466 0.828835 0.828464 0.828371 0.828570 0.829068 0.829863 0.830942 0.832287 0.833872 0.835667 0.837639 0.839754 0.841982 0.844292 0.846661 0.849067 0.851494 0.853930 0.856369 0.858804 0.861235 0.863662 0.866088 0.868515 0.870945 0.873382 0.875826 0.878278 0.880737 0.865859 0.863417 0.860973 0.858532 0.856103 0.853693 0.851308 0.848955 0.846641 0.844372 0.842153 0.839992 0.837896 0.835874 0.833937 0.832100 0.830381 0.828803 0.827390 0.826175 0.825187 0.824460 0.824022 0.823898 0.824104 0.824649 0.825528 0.826728 0.828224 0.829985 0.831974 0.834152 0.836480 0.838921 0.841442 0.844015 0.846618 0.849232 0.851845 0.854450 0.857041 0.859618 0.862181 0.864734 0.867278 0.869817 0.872354 0.874890 0.877425 0.879959 0.864499 0.861951 0.859392 0.856831 0.854274 0.851729 0.849202 0.846701 0.844231 0.841799 0.839412 0.837075 0.834798 0.832588 0.830461 0.828431 0.826521 0.824756 0.823168 0.821793 0.820670 0.819837 0.819330 0.819179 0.819404 0.820013 0.821001 0.822348 0.824026 0.825994 0.828208 0.830621 0.833188 0.835865 0.838616 0.841410 0.844222 0.847033 0.849830 0.852605 0.855355 0.858079 0.860779 0.863456 0.866116 0.868761 0.871394 0.874018 0.876634 0.879240 0.863206 0.860547 0.857870 0.855182 0.852489 0.849800 0.847121 0.844458 0.841818 0.839207 0.836631 0.834099 0.831617 0.829197 0.826854 0.824607 0.822480 0.820504 0.818719 0.817166 0.815892 0.814946 0.814369 0.814199 0.814459 0.815156 0.816282 0.817813 0.819708 0.821920 0.824394 0.827073 0.829906 0.832843 0.835843 0.838872 0.841904 0.844919 0.847905 0.850854 0.853763 0.856633 0.859467 0.862267 0.865038 0.867785 0.870511 0.873219 0.875909 0.878583 0.861988 0.859216 0.856416 0.853596 0.850761 0.847918 0.845075 0.842237 0.839411 0.836603 0.833819 0.831068 0.828358 0.825702 0.823115 0.820622 0.818250 0.816037 0.814029 0.812277 0.810839 0.809772 0.809129 0.808952 0.809268 0.810084 0.811387 0.813141 0.815297 0.817794 0.820565 0.823545 0.826671 0.829889 0.833155 0.836431 0.839691 0.842915 0.846092 0.849214 0.852282 0.855295 0.858258 0.861176 0.864054 0.866898 0.869711 0.872497 0.875257 0.877993 0.860859 0.857972 0.855046 0.852089 0.849104 0.846100 0.843082 0.840055 0.837027 0.834003 0.830990 0.827996 0.825031 0.822110 0.819250 0.816479 0.813831 0.811351 0.809093 0.807121 0.805504 0.804311 0.803607 0.803441 0.803843 0.804818 0.806343 0.808371 0.810837 0.813663 0.816771 0.820083 0.823528 0.827048 0.830592 0.834124 0.837616 0.841050 0.844416 0.847709 0.850929 0.854080 0.857167 0.860196 0.863174 0.866108 0.869001 0.871859 0.874683 0.877476 0.859831 0.856829 0.853776 0.850678 0.847539 0.844366 0.841163 0.837935 0.834690 0.831431 0.828168 0.824906 0.821659 0.818442 0.815278 0.812196 0.809239 0.806460 0.803924 0.801709 0.799898 0.798576 0.797821 0.797691 0.798218 0.799400 0.801203 0.803561 0.806389 0.809593 0.813076 0.816750 0.820535 0.824369 0.828200 0.831990 0.835713 0.839353 0.842902 0.846358 0.849724 0.853004 0.856206 0.859338 0.862408 0.865422 0.868389 0.871311 0.874193 0.877036 0.858920 0.855804 0.852624 0.849384 0.846088 0.842740 0.839345 0.835907 0.832430 0.828921 0.825387 0.821835 0.818279 0.814738 0.811236 0.807811 0.804511 0.801399 0.798556 0.796075 0.794056 0.792605 0.791815 0.791753 0.792454 0.793903 0.796047 0.798797 0.802043 0.805668 0.809560 0.813618 0.817758 0.821912 0.826029 0.830072 0.834019 0.837856 0.841578 0.845185 0.848684 0.852082 0.855388 0.858612 0.861763 0.864850 0.867881 0.870859 0.873791 0.876677 0.858141 0.854914 0.851610 0.848230 0.844777 0.841253 0.837662 0.834006 0.830290 0.826518 0.822696 0.818835 0.814948 0.811056 0.807189 0.803389 0.799714 0.796240 0.793062 0.790291 0.788054 0.786477 0.785674 0.785723 0.786655 0.788439 0.790995 0.794199 0.797914 0.801998 0.806322 0.810777 0.815272 0.819741 0.824133 0.828417 0.832572 0.836589 0.840467 0.844211 0.847828 0.851329 0.854725 0.858029 0.861250 0.864398 0.867483 0.870509 0.873481 0.876404 0.857509 0.854180 0.850757 0.847242 0.843636 0.839940 0.836154 0.832280 0.828320 0.824279 0.820162 0.815979 0.811746 0.807485 0.803231 0.799034 0.794960 0.791098 0.787562 0.784486 0.782023 0.780329 0.779542 0.779752 0.780982 0.783176 0.786211 0.789927 0.794149 0.798712 0.803475 0.808319 0.813156 0.817920 0.822567 0.827067 0.831407 0.835582 0.839595 0.843454 0.847170 0.850757 0.854228 0.857597 0.860874 0.864073 0.867200 0.870264 0.873269 0.876219 0.857043 0.853619 0.850088 0.846448 0.842698 0.838837 0.834864 0.830778 0.826581 0.822274