# vtk DataFile Version 2.0
one liner comment goes here
ASCII
DATASET STRUCTURED_POINTS
DIMENSIONS 50 50 50
ORIGIN 0 0 0
SPACING 1 1 1
POINT_DATA 125000
VECTORS anyoldnameforthisvolume float
0.461553 -0.742925 -0.062591 0.441162 -0.751934 -0.075558 0.420725 -0.760035 -0.089244 0.400425 -0.767128 -0.103636 0.380470 -0.773120 -0.118709 0.361092 -0.777928 -0.134428 0.342545 -0.781482 -0.150746 0.325100 -0.783727 -0.167603 0.309040 -0.784627 -0.184923 0.294655 -0.784161 -0.202618 0.282232 -0.782325 -0.220585 0.272051 -0.779130 -0.238704 0.264372 -0.774600 -0.256843 0.259427 -0.768766 -0.274852 0.257413 -0.761665 -0.292569 0.258479 -0.753336 -0.309816 0.262720 -0.743812 -0.326408 0.270170 -0.733124 -0.342150 0.280794 -0.721299 -0.356843 0.294488 -0.708355 -0.370294 0.311074 -0.694310 -0.382317 0.330306 -0.679184 -0.392749 0.351875 -0.663001 -0.401450 0.375419 -0.645798 -0.408319 0.400536 -0.627624 -0.413301 0.426799 -0.608546 -0.416385 0.453776 -0.588652 -0.417616 0.481046 -0.568046 -0.417088 0.508212 -0.546846 -0.414943 0.534918 -0.525181 -0.411362 0.560857 -0.503184 -0.406560 0.585776 -0.480989 -0.400770 0.609478 -0.458720 -0.394240 0.631823 -0.436491 -0.387217 0.652719 -0.414401 -0.379941 0.672122 -0.392531 -0.372637 0.690023 -0.370945 -0.365509 0.706445 -0.349688 -0.358737 0.721434 -0.328788 -0.352471 0.735053 -0.308262 -0.346831 0.747379 -0.288112 -0.341905 0.758494 -0.268336 -0.337750 0.768484 -0.248926 -0.334390 0.777438 -0.229874 -0.331819 0.785444 -0.211178 -0.330002 0.792591 -0.192838 -0.328878 0.798964 -0.174866 -0.328362 0.804648 -0.157280 -0.328354 0.809726 -0.140110 -0.328739 0.814280 -0.123392 -0.329395 0.446428 -0.750530 -0.058949 0.424476 -0.759846 -0.072341 0.402389 -0.768194 -0.086532 0.380358 -0.775462 -0.101515 0.358610 -0.781546 -0.117272 0.337394 -0.786354 -0.133775 0.316990 -0.789809 -0.150979 0.297696 -0.791852 -0.168829 0.279827 -0.792444 -0.187251 0.263709 -0.791565 -0.206158 0.249668 -0.789218 -0.225444 0.238021 -0.785421 -0.244987 0.229070 -0.780207 -0.264646 0.223085 -0.773621 -0.284262 0.220300 -0.765713 -0.303657 0.220897 -0.756531 -0.322637 0.224998 -0.746123 -0.340991 0.232656 -0.734527 -0.358495 0.243847 -0.721773 -0.374917 0.258465 -0.707885 -0.390026 0.276321 -0.692881 -0.403597 0.297143 -0.676779 -0.415425 0.320584 -0.659602 -0.425333 0.346232 -0.641383 -0.433188 0.373628 -0.622175 -0.438908 0.402283 -0.602048 -0.442467 0.431698 -0.581097 -0.443906 0.461388 -0.559435 -0.443326 0.490902 -0.537193 -0.440885 0.519834 -0.514515 -0.436791 0.547840 -0.491548 -0.431290 0.574641 -0.468437 -0.424652 0.600026 -0.445319 -0.417160 0.623848 -0.422316 -0.409096 0.646020 -0.399533 -0.400732 0.666505 -0.377056 -0.392319 0.685309 -0.354948 -0.384085 0.702472 -0.333254 -0.376224 0.718058 -0.312002 -0.368899 0.732149 -0.291203 -0.362236 0.744839 -0.270860 -0.356327 0.756227 -0.250965 -0.351228 0.766416 -0.231509 -0.346962 0.775509 -0.212483 -0.343519 0.783608 -0.193880 -0.340859 0.790812 -0.175701 -0.338918 0.797218 -0.157954 -0.337609 0.802919 -0.140654 -0.336831 0.808006 -0.123826 -0.336467 0.812564 -0.107502 -0.336399 0.431747 -0.757590 -0.054199 0.408182 -0.767217 -0.067950 0.384376 -0.775812 -0.082584 0.360533 -0.783250 -0.098101 0.336892 -0.789415 -0.114491 0.313724 -0.794204 -0.131733 0.291332 -0.797531 -0.149791 0.270044 -0.799330 -0.168612 0.250210 -0.799560 -0.188130 0.232194 -0.798202 -0.208259 0.216363 -0.795262 -0.228895 0.203079 -0.790769 -0.249912 0.192687 -0.784767 -0.271167 0.185505 -0.777314 -0.292490 0.181806 -0.768475 -0.313690 0.181812 -0.758313 -0.334554 0.185679 -0.746889 -0.354843 0.193486 -0.734252 -0.374303 0.205222 -0.720440 -0.392663 0.220786 -0.705480 -0.409646 0.239977 -0.689392 -0.424981 0.262495 -0.672193 -0.438411 0.287953 -0.653905 -0.449713 0.315883 -0.634561 -0.458712 0.345757 -0.614216 -0.465292 0.377012 -0.592946 -0.469409 0.409075 -0.570855 -0.471095 0.441386 -0.548069 -0.470459 0.473429 -0.524734 -0.467683 0.504743 -0.501010 -0.463004 0.534943 -0.477061 -0.456707 0.563723 -0.453044 -0.449108 0.590857 -0.429108 -0.440531 0.616196 -0.405383 -0.431300 0.639660 -0.381979 -0.421724 0.661225 -0.358982 -0.412085 0.680917 -0.336455 -0.402634 0.698794 -0.314439 -0.393586 0.714944 -0.292957 -0.385114 0.729469 -0.272017 -0.377353 0.742484 -0.251614 -0.370395 0.754108 -0.231738 -0.364298 0.764462 -0.212375 -0.359081 0.773663 -0.193511 -0.354730 0.781827 -0.175137 -0.351201 0.789065 -0.157248 -0.348427 0.795485 -0.139849 -0.346316 0.801188 -0.122952 -0.344765 0.806272 -0.106577 -0.343659 0.810828 -0.090748 -0.342880 0.417669 -0.764052 -0.048223 0.392450 -0.773996 -0.062251 0.366869 -0.782843 -0.077246 0.341139 -0.790454 -0.093219 0.315512 -0.796696 -0.110169 0.290281 -0.801453 -0.128086 0.265771 -0.804629 -0.146940 0.242343 -0.806150 -0.166691 0.220381 -0.805969 -0.187278 0.200291 -0.804067 -0.208620 0.182485 -0.800456 -0.230618 0.167373 -0.795172 -0.253149 0.155352 -0.788271 -0.276065 0.146789 -0.779827 -0.299190 0.142007 -0.769923 -0.322322 0.141276 -0.758638 -0.345225 0.144792 -0.746049 -0.367638 0.152665 -0.732218 -0.389267 0.164908 -0.717193 -0.409798 0.181427 -0.701007 -0.428902 0.202012 -0.683684 -0.446248 0.226335 -0.665239 -0.461520 0.253963 -0.645696 -0.474434 0.284364 -0.625090 -0.484761 0.316932 -0.603480 -0.492344 0.351017 -0.580950 -0.497111 0.385956 -0.557618 -0.499087 0.421104 -0.533627 -0.498391 0.455866 -0.509141 -0.495228 0.489723 -0.484340 -0.489879 0.522243 -0.459402 -0.482676 0.553091 -0.434503 -0.473987 0.582031 -0.409800 -0.464189 0.608916 -0.385429 -0.453656 0.633675 -0.361500 -0.442738 0.656305 -0.338099 -0.431753 0.676855 -0.315283 -0.420979 0.695408 -0.293087 -0.410648 0.712079 -0.271526 -0.400949 0.726994 -0.250600 -0.392021 0.740292 -0.230296 -0.383960 0.752112 -0.210597 -0.376822 0.762593 -0.191482 -0.370621 0.771870 -0.172933 -0.365339 0.780072 -0.154933 -0.360929 0.787323 -0.137475 -0.357315 0.793740 -0.120558 -0.354405 0.799433 -0.104187 -0.352091 0.804505 -0.088377 -0.350258 0.809053 -0.073146 -0.348788 0.404368 -0.769855 -0.040902 0.377467 -0.780130 -0.055105 0.350066 -0.789241 -0.070359 0.322386 -0.797032 -0.086686 0.294692 -0.803355 -0.104100 0.267292 -0.808079 -0.122599 0.240538 -0.811092 -0.142169 0.214821 -0.812309 -0.162780 0.190563 -0.811677 -0.184381 0.168212 -0.809177 -0.206904 0.148230 -0.804819 -0.230257 0.131081 -0.798650 -0.254320 0.117216 -0.790739 -0.278948 0.107060 -0.781176 -0.303962 0.100997 -0.770061 -0.329148 0.099349 -0.757495 -0.354255 0.102364 -0.743572 -0.378990 0.110194 -0.728371 -0.403023 0.122883 -0.711951 -0.425988 0.140349 -0.694355 -0.447494 0.162378 -0.675610 -0.467139 0.188617 -0.655736 -0.484531 0.218578 -0.634758 -0.499311 0.251657 -0.612717 -0.511181 0.287158 -0.589680 -0.519930 0.324326 -0.565746 -0.525453 0.362391 -0.541049 -0.527763 0.400607 -0.515756 -0.526992 0.438291 -0.490055 -0.523380 0.474853 -0.464145 -0.517258 0.509814 -0.438227 -0.509019 0.542813 -0.412487 -0.499096 0.573603 -0.387091 -0.487929 0.602045 -0.362178 -0.475949 0.628087 -0.337855 -0.463555 0.651753 -0.314199 -0.451105 0.673118 -0.291258 -0.438904 0.692300 -0.269056 -0.427206 0.709440 -0.247597 -0.416210 0.724695 -0.226867 -0.406061 0.738228 -0.206844 -0.396857 0.750201 -0.187501 -0.388648 0.760773 -0.168808 -0.381446 0.770095 -0.150739 -0.375227 0.778311 -0.133273 -0.369935 0.785556 -0.116394 -0.365490 0.791956 -0.100096 -0.361796 0.797629 -0.084380 -0.358740 0.802684 -0.069251 -0.356206 0.807220 -0.054724 -0.354075 0.392027 -0.774935 -0.032122 0.363434 -0.785557 -0.046376 0.334186 -0.794950 -0.061763 0.304508 -0.802940 -0.078317 0.274675 -0.809361 -0.096067 0.245012 -0.814060 -0.115028 0.215893 -0.816911 -0.135200 0.187740 -0.817814 -0.156569 0.161012 -0.816706 -0.179101 0.136204 -0.813561 -0.202741 0.113828 -0.808393 -0.227409 0.094407 -0.801253 -0.252998 0.078454 -0.792223 -0.279369 0.066462 -0.781408 -0.306344 0.058879 -0.768931 -0.333703 0.056096 -0.754912 -0.361178 0.058421 -0.739466 -0.388450 0.066061 -0.722692 -0.415145 0.079103 -0.704664 -0.440839 0.097488 -0.685436 -0.465069 0.121003 -0.665042 -0.487346 0.149267 -0.643510 -0.507182 0.181738 -0.620871 -0.524124 0.217726 -0.597176 -0.537787 0.256426 -0.572507 -0.547890 0.296958 -0.546986 -0.554285 0.338425 -0.520774 -0.556971 0.379961 -0.494065 -0.556099 0.420780 -0.467077 -0.551954 0.460214 -0.440036 -0.544933 0.497733 -0.413160 -0.535506 0.532950 -0.386647 -0.524186 0.565618 -0.360667 -0.511488 0.595612 -0.335354 -0.497911 0.622908 -0.310805 -0.483908 0.647561 -0.287083 -0.469878 0.669687 -0.264221 -0.456159 0.689437 -0.242223 -0.443021 0.706988 -0.221077 -0.430675 0.722528 -0.200754 -0.419270 0.736247 -0.181219 -0.408900 0.748331 -0.162431 -0.399613 0.758958 -0.144350 -0.391412 0.768297 -0.126942 -0.384264 0.776505 -0.110178 -0.378108 0.783728 -0.094034 -0.372857 0.790101 -0.078499 -0.368407 0.795749 -0.063567 -0.364643 0.800784 -0.049238 -0.361444 0.805309 -0.035519 -0.358690 0.380838 -0.779219 -0.021775 0.350563 -0.790209 -0.035934 0.319460 -0.799910 -0.051300 0.287756 -0.808127 -0.067925 0.255731 -0.814672 -0.085854 0.223723 -0.819371 -0.105119 0.192127 -0.822078 -0.125743 0.161393 -0.822673 -0.147730 0.132020 -0.821081 -0.171067 0.104547 -0.817266 -0.195721 0.079542 -0.811239 -0.221630 0.057589 -0.803053 -0.248706 0.039272 -0.792802 -0.276822 0.025156 -0.780607 -0.305809 0.015770 -0.766609 -0.335446 0.011582 -0.750953 -0.365455 0.012979 -0.733776 -0.395488 0.020236 -0.715198 -0.425127 0.033497 -0.695311 -0.453884 0.052743 -0.674184 -0.481208 0.077769 -0.651864 -0.506504 0.108171 -0.628388 -0.529167 0.143345 -0.603802 -0.548621 0.182502 -0.578176 -0.564367 0.224703 -0.551618 -0.576037 0.268921 -0.524283 -0.583427 0.314102 -0.496370 -0.586523 0.359234 -0.468112 -0.585503 0.403414 -0.439765 -0.580713 0.445887 -0.411581 -0.572637 0.486069 -0.383796 -0.561843 0.523558 -0.356617 -0.548942 0.558110 -0.330205 -0.534541 0.589629 -0.304682 -0.519213 0.618128 -0.280125 -0.503473 0.643706 -0.256574 -0.487763 0.666522 -0.234035 -0.472451 0.686772 -0.212491 -0.457823 0.704669 -0.191905 -0.444098 0.720437 -0.172230 -0.431424 0.734292 -0.153412 -0.419892 0.746446 -0.135397 -0.409540 0.757096 -0.118134 -0.400363 0.766428 -0.101578 -0.392318 0.774612 -0.085690 -0.385334 0.781803 -0.070444 -0.379317 0.788144 -0.055818 -0.374155 0.793765 -0.041801 -0.369729 0.798782 -0.028388 -0.365913 0.803302 -0.015581 -0.362586 0.370999 -0.782622 -0.009765 0.339077 -0.794006 -0.023657 0.306136 -0.804047 -0.038822 0.272399 -0.812528 -0.055329 0.238149 -0.819238 -0.073242 0.203733 -0.823978 -0.092616 0.169562 -0.826576 -0.113497 0.136112 -0.826893 -0.135916 0.103918 -0.824831 -0.159886 0.073564 -0.820342 -0.185402 0.045676 -0.813428 -0.212430 0.020903 -0.804141 -0.240908 -0.000095 -0.792581 -0.270731 -0.016669 -0.778884 -0.301749 -0.028199 -0.763208 -0.333750 -0.034124 -0.745721 -0.366449 -0.033961 -0.726584 -0.399477 -0.027342 -0.705939 -0.432370 -0.014048 -0.683901 -0.464567 0.005960 -0.660556 -0.495414 0.032502 -0.635968 -0.524186 0.065156 -0.610193 -0.550127 0.103249 -0.583300 -0.572504 0.145873 -0.555392 -0.590673 0.191931 -0.526619 -0.604150 0.240207 -0.497186 -0.612662 0.289455 -0.467349 -0.616184 0.338491 -0.437394 -0.614935 0.386272 -0.407618 -0.609349 0.431948 -0.378306 -0.600023 0.474887 -0.349705 -0.587652 0.514677 -0.322016 -0.572967 0.551096 -0.295384 -0.556682 0.584089 -0.269902 -0.539455 0.613719 -0.245614 -0.521865 0.640141 -0.222524 -0.504398 0.663567 -0.200603 -0.487445 0.684239 -0.179803 -0.471308 0.702415 -0.160059 -0.456206 0.718352 -0.141299 -0.442283 0.732297 -0.123451 -0.429620 0.744485 -0.106444 -0.418246 0.755132 -0.090215 -0.408142 0.764440 -0.074708 -0.399253 0.772588 -0.059879 -0.391498 0.779743 -0.045691 -0.384773 0.786052 -0.032120 -0.378959 0.791650 -0.019148 -0.373931 0.796657 -0.006766 -0.369558 0.801178 0.005030 -0.365716 0.362712 -0.785045 0.003987 0.329203 -0.796850 -0.009442 0.294469 -0.807269 -0.024196 0.258722 -0.816060 -0.040361 0.222241 -0.822987 -0.058025 0.185378 -0.827824 -0.077267 0.148554 -0.830371 -0.098162 0.112266 -0.830461 -0.120772 0.077081 -0.827971 -0.145144 0.043626 -0.822832 -0.171309 0.012583 -0.815030 -0.199272 -0.015329 -0.804612 -0.229007 -0.039368 -0.791677 -0.260447 -0.058792 -0.776370 -0.293469 -0.072879 -0.758863 -0.327884 -0.080951 -0.739346 -0.363413 -0.082410 -0.718002 -0.399673 -0.076770 -0.694997 -0.436155 -0.063703 -0.670467 -0.472218 -0.043086 -0.644521 -0.507087 -0.015053 -0.617246 -0.539875 0.019967 -0.588726 -0.569635 0.061225 -0.559070 -0.595427 0.107673 -0.528434 -0.616416 0.158010 -0.497035 -0.631967 0.210785 -0.465157 -0.641725 0.264512 -0.433134 -0.645657 0.317796 -0.401323 -0.644049 0.369433 -0.370072 -0.637461 0.418471 -0.339691 -0.626643 0.464240 -0.310429 -0.612450 0.506334 -0.282462 -0.595762 0.544573 -0.255899 -0.577415 0.578959 -0.230785 -0.558157 0.609627 -0.207112 -0.538632 0.636797 -0.184834 -0.519364 0.660741 -0.163878 -0.500764 0.681755 -0.144154 -0.483139 0.700142 -0.125565 -0.466702 0.716193 -0.108014 -0.451587 0.730187 -0.091405 -0.437863 0.742379 -0.075653 -0.425540 0.753005 -0.060682 -0.414586 0.762278 -0.046428 -0.404934 0.770389 -0.032837 -0.396487 0.777510 -0.019870 -0.389132 0.783794 -0.007495 -0.382742 0.789379 0.004306 -0.377185 0.794387 0.015548 -0.372326 0.798922 0.026238 -0.368036 0.356174 -0.786375 0.019536 0.321171 -0.798627 0.006789 0.284720 -0.809461 -0.007313 0.247019 -0.818614 -0.022878 0.208337 -0.825820 -0.040016 0.169019 -0.830826 -0.058837 0.129492 -0.833398 -0.079445 0.090266 -0.833337 -0.101941 0.051931 -0.830488 -0.126415 0.015156 -0.824753 -0.152942 -0.019325 -0.816097 -0.181579 -0.050722 -0.804549 -0.212349 -0.078211 -0.790201 -0.245237 -0.100945 -0.773197 -0.280170 -0.118083 -0.753721 -0.316995 -0.128814 -0.731974 -0.355460 -0.132392 -0.708161 -0.395179 -0.128180 -0.682467 -0.435608 -0.115702 -0.655050 -0.476018 -0.094709 -0.626044 -0.515492 -0.065254 -0.595564 -0.552945 -0.027757 -0.563739 -0.587177 0.016955 -0.530741 -0.616977 0.067657 -0.496810 -0.641253 0.122792 -0.462272 -0.659173 0.180601 -0.427528 -0.670281 0.239295 -0.393024 -0.674553 0.297217 -0.359208 -0.672387 0.352977 -0.326482 -0.664520 0.405526 -0.295170 -0.651912 0.454169 -0.265497 -0.635623 0.498533 -0.237589 -0.616708 0.538509 -0.211485 -0.596135 0.574182 -0.187157 -0.574751 0.605772 -0.164524 -0.553253 0.633579 -0.143475 -0.532194 0.657944 -0.123881 -0.511994 0.679220 -0.105605 -0.492955 0.697753 -0.088514 -0.475275 0.713873 -0.072483 -0.459073 0.727882 -0.057396 -0.444394 0.740059 -0.043152 -0.431233 0.750654 -0.029665 -0.419539 0.759892 -0.016863 -0.409228 0.767970 -0.004688 -0.400191 0.775068 0.006905 -0.392304 0.781342 0.017947 -0.385430 0.786930 0.028461 -0.379431 0.791954 0.038461 -0.374168 0.796521 0.047958 -0.369507 0.351575 -0.786480 0.036905 0.315204 -0.799199 0.025083 0.277151 -0.810484 0.011901 0.237592 -0.820048 -0.002770 0.196778 -0.827602 -0.019063 0.155039 -0.832857 -0.037119 0.112796 -0.835547 -0.057078 0.070563 -0.835432 -0.079085 0.028947 -0.832321 -0.103278 -0.011355 -0.826077 -0.129791 -0.049561 -0.816634 -0.158741 -0.084816 -0.803994 -0.190222 -0.116208 -0.788228 -0.224289 -0.142782 -0.769473 -0.260939 -0.163564 -0.747907 -0.300088 -0.177588 -0.723740 -0.341532 -0.183925 -0.697183 -0.384907 -0.181741 -0.668436 -0.429647 -0.170355 -0.637674 -0.474942 -0.149335 -0.605053 -0.519708 -0.118598 -0.570729 -0.562607 -0.078520 -0.534891 -0.602112 -0.030008 -0.497811 -0.636643 0.025488 -0.459865 -0.664757 0.086072 -0.421549 -0.685363 0.149580 -0.383441 -0.697887 0.213823 -0.346147 -0.702349 0.276824 -0.310223 -0.699327 0.336987 -0.276119 -0.689819 0.393172 -0.244141 -0.675067 0.444694 -0.214450 -0.656388 0.491253 -0.187074 -0.635037 0.532844 -0.161946 -0.612122 0.569667 -0.138929 -0.588575 0.602046 -0.117848 -0.565136 0.630372 -0.098510 -0.542370 0.655060 -0.080722 -0.520690 0.676521 -0.064299 -0.500376 0.695146 -0.049069 -0.481606 0.711296 -0.034880 -0.464471 0.725301 -0.021600 -0.448993 0.737455 -0.009116 -0.435143 0.748022 0.002668 -0.422850 0.757234 0.013826 -0.412014 0.765295 0.024419 -0.402512 0.772388 0.034492 -0.394209 0.778672 0.044077 -0.386959 0.784284 0.053197 -0.380618 0.789347 0.061866 -0.375043 0.793966 0.070092 -0.370097 0.349090 -0.785211 0.056079 0.311513 -0.798404 0.045443 0.272014 -0.810164 0.033473 0.230739 -0.820186 0.020024 0.187910 -0.828150 0.004937 0.143835 -0.833739 -0.011959 0.098916 -0.836645 -0.030842 0.053657 -0.836589 -0.051905 0.008666 -0.833334 -0.075343 -0.035340 -0.826698 -0.101357 -0.077546 -0.816570 -0.130140 -0.117040 -0.802912 -0.161875 -0.152827 -0.785764 -0.196712 -0.183843 -0.765236 -0.234751 -0.208973 -0.741489 -0.276005 -0.227067 -0.714721 -0.320361 -0.236982 -0.685139 -0.367518 -0.237625 -0.652939 -0.416918 -0.228038 -0.618301 -0.467680 -0.207511 -0.581397 -0.518537 -0.175742 -0.542426 -0.567834 -0.133001 -0.501671 -0.613606 -0.080272 -0.459555 -0.653759 -0.019289 -0.416679 -0.686367 0.047584 -0.373803 -0.709988 0.117628 -0.331774 -0.723923 0.188128 -0.291411 -0.728303 0.256709 -0.253391 -0.724001 0.321551 -0.218177 -0.712397 0.381460 -0.186000 -0.695108 0.435814 -0.156882 -0.673758 0.484440 -0.130693 -0.649817 0.527485 -0.107206 -0.624528 0.565294 -0.086141 -0.598882 0.598315 -0.067208 -0.573637 0.627039 -0.050122 -0.549346 0.651957 -0.034622 -0.526391 0.673538 -0.020474 -0.505023 0.692213 -0.007474 -0.485382 0.708373 0.004550 -0.467527 0.722367 0.015746 -0.451452 0.734505 0.026232 -0.437101 0.745057 0.036106 -0.424384 0.754263 0.045444 -0.413184 0.762333 0.054303 -0.403364 0.769447 0.062728 -0.394778 0.775767 0.070747 -0.387275 0.781430 0.078380 -0.380704 0.786557 0.085640 -0.374917 0.791252 0.092530 -0.369777 0.348870 -0.782400 0.076996 0.310289 -0.796057 0.067819 0.269543 -0.808301 0.057373 0.226745 -0.818807 0.045499 0.182077 -0.827233 0.032016 0.135813 -0.833228 0.016726 0.088322 -0.836447 -0.000591 0.040082 -0.836564 -0.020174 -0.008312 -0.833293 -0.042281 -0.056146 -0.826399 -0.067189 -0.102587 -0.815713 -0.095183 -0.146684 -0.801145 -0.126551 -0.187375 -0.782686 -0.161568 -0.223494 -0.760400 -0.200470 -0.253779 -0.734411 -0.243418 -0.276888 -0.704882 -0.290442 -0.291419 -0.671988 -0.341364 -0.295956 -0.635896 -0.395694 -0.289157 -0.596762 -0.452518 -0.269905 -0.554756 -0.510377 -0.237532 -0.510124 -0.567228 -0.192098 -0.463280 -0.620507 -0.134636 -0.414893 -0.667398 -0.067258 -0.365922 -0.705279 0.007011 -0.317553 -0.732239 0.084665 -0.271032 -0.747461 0.162278 -0.227449 -0.751322 0.236990 -0.187581 -0.745173 0.306768 -0.151820 -0.730942 0.370428 -0.120206 -0.710728 0.427496 -0.092521 -0.686502 0.478004 -0.068390 -0.659942 0.522303 -0.047371 -0.632388 0.560913 -0.029013 -0.604854 0.594425 -0.012895 -0.578075 0.623433 0.001360 -0.552561 0.648503 0.014075 -0.528647 0.670155 0.025523 -0.506531 0.688857 0.035933 -0.486311 0.705022 0.045490 -0.468009 0.719015 0.054345 -0.451586 0.731156 0.062617 -0.436963 0.741721 0.070399 -0.424028 0.750952 0.077762 -0.412649 0.759062 0.084760 -0.402677 0.766231 0.091428 -0.393959 0.772619 0.097791 -0.386337 0.778364 0.103863 -0.379656 0.783584 0.109651 -0.373767 0.788381 0.115156 -0.368532 0.351037 -0.777869 0.099541 0.311690 -0.791953 0.092099 0.269945 -0.804660 0.083498 0.225870 -0.815652 0.073569 0.179603 -0.824563 0.062116 0.131370 -0.831013 0.048915 0.081492 -0.834619 0.033713 0.030407 -0.835010 0.016223 -0.021329 -0.831842 -0.003878 -0.073026 -0.824820 -0.026944 -0.123860 -0.813711 -0.053364 -0.172866 -0.798357 -0.083550 -0.218941 -0.778680 -0.117926 -0.260841 -0.754678 -0.156906 -0.297175 -0.726410 -0.200853 -0.326404 -0.693974 -0.250014 -0.346841 -0.657474 -0.304426 -0.356674 -0.617002 -0.363767 -0.354049 -0.572641 -0.427170 -0.337243 -0.524520 -0.493019 -0.304993 -0.472922 -0.558798 -0.256943 -0.418448 -0.621134 -0.194110 -0.362167 -0.676161 -0.119120 -0.305638 -0.720241 -0.035974 -0.250726 -0.750822 0.050672 -0.199252 -0.767034 0.136423 -0.152613 -0.769739 0.217847 -0.111579 -0.761054 0.292755 -0.076289 -0.743668 0.360098 -0.046413 -0.720255 0.419676 -0.021347 -0.693134 0.471818 -0.000379 -0.664144 0.517137 0.017192 -0.634655 0.556358 0.032002 -0.605643 0.590216 0.044598 -0.577775 0.619410 0.055434 -0.551486 0.644573 0.064879 -0.527040 0.666270 0.073231 -0.504576 0.684994 0.080726 -0.484144 0.701179 0.087547 -0.465724 0.715197 0.093841 -0.449249 0.727374 0.099717 -0.434616 0.737989 0.105258 -0.421696 0.747286 0.110525 -0.410344 0.755475 0.115560 -0.400404 0.762738 0.120389 -0.391716 0.769231 0.125029 -0.384119 0.775092 0.129485 -0.377456 0.780436 0.133757 -0.371580 0.785362 0.137841 -0.366350 0.355671 -0.771432 0.123540 0.315833 -0.785873 0.118101 0.273380 -0.798988 0.111661 0.228333 -0.810427 0.104049 0.180776 -0.819805 0.095061 0.130876 -0.826717 0.084458 0.078895 -0.830742 0.071957 0.025209 -0.831464 0.057232 -0.029685 -0.828482 0.039903 -0.085150 -0.821434 0.019536 -0.140400 -0.810013 -0.004360 -0.194498 -0.793979 -0.032332 -0.246339 -0.773169 -0.064975 -0.294642 -0.747491 -0.102916 -0.337929 -0.716910 -0.146778 -0.374496 -0.681415 -0.197116 -0.402371 -0.640987 -0.254302 -0.419294 -0.595574 -0.318338 -0.422746 -0.545106 -0.388571 -0.410130 -0.489586 -0.463333 -0.379208 -0.429305 -0.539595 -0.328837 -0.365143 -0.612885 -0.259850 -0.298835 -0.677790 -0.175594 -0.232956 -0.729149 -0.081574 -0.170466 -0.763544 0.015822 -0.113965 -0.780231 0.110878 -0.065080 -0.780981 0.199550 -0.024287 -0.769081 0.279650 0.008855 -0.748199 0.350472 0.035311 -0.721622 0.412256 0.056231 -0.691944 0.465730 0.072725 -0.661056 0.511817 0.085768 -0.630264 0.551459 0.096160 -0.600434 0.585538 0.104543 -0.572121 0.614844 0.111414 -0.545658 0.640067 0.117161 -0.521227 0.661805 0.122077 -0.498905 0.680571 0.126388 -0.478693 0.696806 0.130262 -0.460535 0.710890 0.133826 -0.444341 0.723147 0.137173 -0.429989 0.733860 0.140366 -0.417338 0.743268 0.143452 -0.406236 0.751581 0.146456 -0.396523 0.758979 0.149393 -0.388035 0.765617 0.152268 -0.380613 0.771628 0.155076 -0.374102 0.777127 0.157809 -0.368354 0.782211 0.160455 -0.363235 0.362806 -0.762906 0.148756 0.322782 -0.777595 0.145566 0.279955 -0.791018 0.141583 0.234293 -0.802815 0.136643 0.185824 -0.812587 0.130544 0.134648 -0.819906 0.123041 0.080956 -0.824318 0.113839 0.025044 -0.825360 0.102581 -0.032670 -0.822576 0.088845 -0.091628 -0.815534 0.072130 -0.151124 -0.803843 0.051849 -0.210285 -0.787171 0.027327 -0.268062 -0.765254 -0.002207 -0.323202 -0.737885 -0.037612 -0.374216 -0.704899 -0.079815 -0.419309 -0.666134 -0.129764 -0.456290 -0.621377 -0.188313 -0.482449 -0.570335 -0.256005 -0.494481 -0.512650 -0.332679 -0.488572 -0.448064 -0.416877 -0.460921 -0.376803 -0.505130 -0.408922 -0.300170 -0.591547 -0.332851 -0.221055 -0.668421 -0.237085 -0.143799 -0.728283 -0.129551 -0.073085 -0.766575 -0.019287 -0.012420 -0.783078 0.086254 0.036739 -0.781148 0.182514 0.074812 -0.765714 0.267632 0.103328 -0.741551 0.341544 0.124179 -0.712456 0.405121 0.139160 -0.681124 0.459580 0.149781 -0.649344 0.506179 0.157227 -0.618251 0.546074 0.162401 -0.588543 0.580276 0.165972 -0.560631 0.609650 0.168435 -0.534742 0.634928 0.170152 -0.510978 0.656726 0.171387 -0.489361 0.675569 0.172331 -0.469854 0.691900 0.173121 -0.452377 0.706100 0.173853 -0.436822 0.718491 0.174593 -0.423060 0.729352 0.175382 -0.410945 0.738921 0.176244 -0.400324 0.747405 0.177188 -0.391037 0.754981 0.178213 -0.382925 0.761801 0.179310 -0.375831 0.767997 0.180463 -0.369604 0.773682 0.181654 -0.364104 0.778951 0.182863 -0.359198 0.372420 -0.752123 0.174891 0.332541 -0.766912 0.174160 0.289706 -0.780492 0.172890 0.243835 -0.792500 0.170935 0.194896 -0.802526 0.168106 0.142921 -0.810119 0.164170 0.088019 -0.814798 0.158830 0.030399 -0.816055 0.151724 -0.029617 -0.813377 0.142403 -0.091576 -0.806257 0.130322 -0.154879 -0.794219 0.114825 -0.218767 -0.776826 0.095132 -0.282301 -0.753694 0.070319 -0.344336 -0.724480 0.039310 -0.403474 -0.688856 0.000866 -0.457962 -0.646450 -0.046395 -0.505534 -0.596779 -0.103928 -0.543155 -0.539176 -0.173058 -0.566718 -0.472812 -0.254515 -0.570862 -0.396941 -0.347550 -0.549408 -0.311597 -0.448619 -0.497121 -0.218765 -0.550198 -0.412942 -0.123410 -0.641299 -0.302767 -0.032955 -0.710990 -0.178502 0.045384 -0.753303 -0.053190 0.107512 -0.769275 0.063649 0.153214 -0.764698 0.167357 0.184825 -0.746475 0.256933 0.205533 -0.720356 0.333318 0.218315 -0.690359 0.398172 0.225558 -0.659034 0.453243 0.229030 -0.627919 0.500113 0.229998 -0.597912 0.540122 0.229347 -0.569524 0.574382 0.227697 -0.543036 0.603808 0.225476 -0.518583 0.629155 0.222980 -0.496213 0.651051 0.220414 -0.475912 0.670018 0.217914 -0.457625 0.686500 0.215573 -0.441263 0.700871 0.213447 -0.426718 0.713450 0.211569 -0.413861 0.724511 0.209953 -0.402552 0.734290 0.208597 -0.392643 0.742989 0.207492 -0.383983 0.750783 0.206618 -0.376419 0.757823 0.205953 -0.369803 0.764236 0.205470 -0.363993 0.770135 0.205138 -0.358853 0.775612 0.204928 -0.354262 0.384434 -0.738947 0.201593 0.345040 -0.753643 0.203476 0.302587 -0.767181 0.205116 0.256947 -0.779192 0.206391 0.208032 -0.789258 0.207142 0.155807 -0.796910 0.207157 0.100302 -0.801635 0.206162 0.041634 -0.802886 0.203804 -0.019980 -0.800087 0.199638 -0.084202 -0.792660 0.193107 -0.150562 -0.780029 0.183523 -0.218441 -0.761645 0.170044 -0.287058 -0.736986 0.151650 -0.355444 -0.705543 0.127105 -0.422395 -0.666786 0.094925 -0.486356 -0.620081 0.053339 -0.545205 -0.564574 0.000280 -0.595847 -0.499080 -0.066502 -0.633581 -0.422057 -0.149021 -0.651378 -0.331974 -0.247965 -0.639806 -0.228512 -0.360574 -0.589303 -0.114855 -0.478002 -0.496126 0.000279 -0.585070 -0.368434 0.104307 -0.666015 -0.224508 0.186954 -0.713254 -0.082951 0.245084 -0.729940 0.044830 0.281736 -0.724843 0.154936 0.302327 -0.706631 0.247874 0.311959 -0.681548 0.325858 0.314503 -0.653461 0.391385 0.312635 -0.624599 0.446688 0.308124 -0.596210 0.493609 0.302123 -0.568982 0.533620 0.295379 -0.543295 0.567896 0.288374 -0.519353 0.597377 0.281419 -0.497254 0.622822 0.274711 -0.477029 0.644858 0.268372 -0.458666 0.664001 0.262475 -0.442114 0.680686 0.257057 -0.427300 0.695280 0.252131 -0.414127 0.708098 0.247693 -0.402482 0.719408 0.243727 -0.392239 0.729440 0.240208 -0.383265 0.738395 0.237105 -0.375423 0.746442 0.234382 -0.368573 0.753732 0.232001 -0.362579 0.760390 0.229923 -0.357310 0.766526 0.228108 -0.352643 0.772232 0.226518 -0.348462 0.398704 -0.723283 0.228463 0.360138 -0.737659 0.233051 0.318461 -0.750909 0.237717 0.273510 -0.762660 0.242377 0.225146 -0.772483 0.246909 0.173274 -0.779893 0.251138 0.117852 -0.784345 0.254825 0.058912 -0.785248 0.257653 -0.003427 -0.781966 0.259205 -0.068940 -0.773837 0.258945 -0.137282 -0.760183 0.256196 -0.207979 -0.740323 0.250113 -0.280416 -0.713575 0.239649 -0.353825 -0.679238 0.223513 -0.427242 -0.636531 0.200104 -0.499410 -0.584493 0.167425 -0.568531 -0.521809 0.122976 -0.631748 -0.446624 0.063707 -0.684170 -0.356470 -0.013783 -0.717386 -0.248772 -0.112227 -0.718326 -0.122853 -0.230936 -0.671589 0.015876 -0.361169 -0.569314 0.152352 -0.483890 -0.422958 0.266611 -0.577791 -0.259562 0.346436 -0.633337 -0.103795 0.392957 -0.655639 0.032206 0.414696 -0.655662 0.146319 0.420539 -0.642908 0.240895 0.417011 -0.623557 0.319363 0.408286 -0.601185 0.384887 0.396887 -0.577775 0.440034 0.384307 -0.554433 0.486798 0.371426 -0.531789 0.526713 0.358760 -0.510215 0.560971 0.346604 -0.489935 0.590510 0.335124 -0.471079 0.616079 0.324406 -0.453720 0.638290 0.314485 -0.437879 0.657650 0.305364 -0.423547 0.674581 0.297025 -0.410681 0.689442 0.289440 -0.399216 0.702540 0.282568 -0.389066 0.714136 0.276366 -0.380131 0.724456 0.270786 -0.372299 0.733696 0.265776 -0.365452 0.742025 0.261285 -0.359469 0.749589 0.257262 -0.354230 0.756513 0.253657 -0.349618 0.762904 0.250420 -0.345523 0.768854 0.247504 -0.341843 0.415028 -0.705096 0.255074 0.377618 -0.718898 0.262377 0.337104 -0.731578 0.270095 0.293294 -0.742761 0.278183 0.246013 -0.752004 0.286563 0.195117 -0.758802 0.295106 0.140507 -0.762579 0.303623 0.082146 -0.762696 0.311844 0.020073 -0.758450 0.319401 -0.045578 -0.749090 0.325804 -0.114562 -0.733823 0.330424 -0.186518 -0.711823 0.332458 -0.260956 -0.682227 0.330903 -0.337257 -0.644106 0.324509 -0.414642 -0.596395 0.311705 -0.492086 -0.537753 0.290486 -0.568080 -0.466351 0.258238 -0.640052 -0.379619 0.211516 -0.703152 -0.274167 0.145956 -0.748128 -0.146554 0.056877 -0.759073 0.003591 -0.058000 -0.715560 0.167011 -0.192451 -0.606442 0.320294 -0.326638 -0.447139 0.436539 -0.435283 -0.272331 0.505282 -0.505844 -0.110128 0.534832 -0.542596 0.028264 0.539323 -0.556221 0.142610 0.529993 -0.555898 0.236565 0.513800 -0.547610 0.314215 0.494639 -0.534906 0.379003 0.474600 -0.519867 0.433587 0.454788 -0.503743 0.479974 0.435768 -0.487320 0.519680 0.417819 -0.471113 0.553868 0.401061 -0.455471 0.583448 0.385525 -0.440634 0.609145 0.371196 -0.426760 0.631548 0.358034 -0.413950 0.651146 0.345981 -0.402254 0.668348 0.334974 -0.391684 0.683501 0.324947 -0.382219 0.696902 0.315832 -0.373811 0.708807 0.307559 -0.366393 0.719437 0.300060 -0.359883 0.728983 0.293271 -0.354188 0.737611 0.287125 -0.349207 0.745464 0.281560 -0.344841 0.752665 0.276516 -0.340990 0.759322 0.271937 -0.337559 0.765525 0.267767 -0.334459 0.433153 -0.684420 0.280989 0.397198 -0.697378 0.290936 0.358204 -0.709189 0.301627 0.315961 -0.719470 0.313062 0.270270 -0.727764 0.325205 0.220956 -0.733542 0.337979 0.167881 -0.736194 0.351245 0.110962 -0.735029 0.364786 0.050185 -0.729275 0.378289 -0.014370 -0.718087 0.391321 -0.082518 -0.700551 0.403309 -0.153948 -0.675687 0.413512 -0.228215 -0.642442 0.420999 -0.304733 -0.599653 0.424602 -0.382741 -0.545968 0.422856 -0.461218 -0.479692 0.413878 -0.538629 -0.398573 0.395161 -0.612328 -0.299572 0.363265 -0.677266 -0.178944 0.313476 -0.723756 -0.033515 0.239966 -0.735234 0.135093 0.137925 -0.691064 0.312807 0.009697 -0.581594 0.470420 -0.128263 -0.424570 0.579856 -0.250707 -0.254809 0.635345 -0.341389 -0.098562 0.650416 -0.399949 0.034492 0.641807 -0.433994 0.144646 0.621389 -0.451468 0.235516 0.595970 -0.458208 0.310976 0.569104 -0.458058 0.374252 0.542560 -0.453500 0.427826 0.517180 -0.446162 0.473574 0.493332 -0.437146 0.512915 0.