# vtk DataFile Version 2.0
one liner comment goes here
ASCII
DATASET STRUCTURED_POINTS
DIMENSIONS 30 30 30
ORIGIN 0 0 0
SPACING 1 1 1
POINT_DATA 27000
SCALARS anyoldnameforthisvolume float
LOOKUP_TABLE default
0.991870 0.991509 0.991144 0.990776 0.990410 0.990049 0.989699 0.989364 0.989049 0.988761 0.988505 0.988287 0.988112 0.987983 0.987905 0.987878 0.987905 0.987983 0.988112 0.988287 0.988505 0.988761 0.989049 0.989364 0.989699 0.990049 0.990410 0.990776 0.991144 0.991509 0.991509 0.991116 0.990715 0.990310 0.989905 0.989504 0.989114 0.988738 0.988385 0.988061 0.987772 0.987524 0.987325 0.987179 0.987090 0.987059 0.987090 0.987179 0.987325 0.987524 0.987772 0.988061 0.988385 0.988738 0.989114 0.989504 0.989905 0.990310 0.990715 0.991116 0.991144 0.990715 0.990276 0.989831 0.989384 0.988940 0.988505 0.988086 0.987690 0.987325 0.986999 0.986719 0.986493 0.986327 0.986225 0.986191 0.986225 0.986327 0.986493 0.986719 0.986999 0.987325 0.987690 0.988086 0.988505 0.988940 0.989384 0.989831 0.990276 0.990715 0.990776 0.990310 0.989831 0.989343 0.988851 0.988361 0.987878 0.987411 0.986968 0.986558 0.986191 0.985875 0.985619 0.985430 0.985315 0.985276 0.985315 0.985430 0.985619 0.985875 0.986191 0.986558 0.986968 0.987411 0.987878 0.988361 0.988851 0.989343 0.989831 0.990310 0.990410 0.989905 0.989384 0.988851 0.988312 0.987772 0.987238 0.986719 0.986225 0.985766 0.985354 0.984998 0.984709 0.984495 0.984364 0.984320 0.984364 0.984495 0.984709 0.984998 0.985354 0.985766 0.986225 0.986719 0.987238 0.987772 0.988312 0.988851 0.989384 0.989905 0.990049 0.989504 0.988940 0.988361 0.987772 0.987179 0.986591 0.986017 0.985469 0.984957 0.984495 0.984096 0.983770 0.983530 0.983382 0.983332 0.983382 0.983530 0.983770 0.984096 0.984495 0.984957 0.985469 0.986017 0.986591 0.987179 0.987772 0.988361 0.988940 0.989504 0.989699 0.989114 0.988505 0.987878 0.987238 0.986591 0.985946 0.985315 0.984709 0.984141 0.983627 0.983181 0.982817 0.982547 0.982381 0.982325 0.982381 0.982547 0.982817 0.983181 0.983627 0.984141 0.984709 0.985315 0.985946 0.986591 0.987238 0.987878 0.988505 0.989114 0.989364 0.988738 0.988086 0.987411 0.986719 0.986017 0.985315 0.984624 0.983958 0.983332 0.982763 0.982268 0.981863 0.981562 0.981376 0.981314 0.981376 0.981562 0.981863 0.982268 0.982763 0.983332 0.983958 0.984624 0.985315 0.986017 0.986719 0.987411 0.988086 0.988738 0.989049 0.988385 0.987690 0.986968 0.986225 0.985469 0.984709 0.983958 0.983232 0.982547 0.981922 0.981376 0.980929 0.980596 0.980390 0.980321 0.980390 0.980596 0.980929 0.981376 0.981922 0.982547 0.983232 0.983958 0.984709 0.985469 0.986225 0.986968 0.987690 0.988385 0.988761 0.988061 0.987325 0.986558 0.985766 0.984957 0.984141 0.983332 0.982547 0.981803 0.981123 0.980528 0.980038 0.979673 0.979447 0.979371 0.979447 0.979673 0.980038 0.980528 0.981123 0.981803 0.982547 0.983332 0.984141 0.984957 0.985766 0.986558 0.987325 0.988061 0.988505 0.987772 0.986999 0.986191 0.985354 0.984495 0.983627 0.982763 0.981922 0.981123 0.980390 0.979747 0.979216 0.978820 0.978575 0.978492 0.978575 0.978820 0.979216 0.979747 0.980390 0.981123 0.981922 0.982763 0.983627 0.984495 0.985354 0.986191 0.986999 0.987772 0.988287 0.987524 0.986719 0.985875 0.984998 0.984096 0.983181 0.982268 0.981376 0.980528 0.979747 0.979060 0.978492 0.978068 0.977805 0.977716 0.977805 0.978068 0.978492 0.979060 0.979747 0.980528 0.981376 0.982268 0.983181 0.984096 0.984998 0.985875 0.986719 0.987524 0.988112 0.987325 0.986493 0.985619 0.984709 0.983770 0.982817 0.981863 0.980929 0.980038 0.979216 0.978492 0.977893 0.977444 0.977166 0.977072 0.977166 0.977444 0.977893 0.978492 0.979216 0.980038 0.980929 0.981863 0.982817 0.983770 0.984709 0.985619 0.986493 0.987325 0.987983 0.987179 0.986327 0.985430 0.984495 0.983530 0.982547 0.981562 0.980596 0.979673 0.978820 0.978068 0.977444 0.976977 0.976687 0.976588 0.976687 0.976977 0.977444 0.978068 0.978820 0.979673 0.980596 0.981562 0.982547 0.983530 0.984495 0.985430 0.986327 0.987179 0.987905 0.987090 0.986225 0.985315 0.984364 0.983382 0.982381 0.981376 0.980390 0.979447 0.978575 0.977805 0.977166 0.976687 0.976390 0.976289 0.976390 0.976687 0.977166 0.977805 0.978575 0.979447 0.980390 0.981376 0.982381 0.983382 0.984364 0.985315 0.986225 0.987090 0.987878 0.987059 0.986191 0.985276 0.984320 0.983332 0.982325 0.981314 0.980321 0.979371 0.978492 0.977716 0.977072 0.976588 0.976289 0.976187 0.976289 0.976588 0.977072 0.977716 0.978492 0.979371 0.980321 0.981314 0.982325 0.983332 0.984320 0.985276 0.986191 0.987059 0.987905 0.987090 0.986225 0.985315 0.984364 0.983382 0.982381 0.981376 0.980390 0.979447 0.978575 0.977805 0.977166 0.976687 0.976390 0.976289 0.976390 0.976687 0.977166 0.977805 0.978575 0.979447 0.980390 0.981376 0.982381 0.983382 0.984364 0.985315 0.986225 0.987090 0.987983 0.987179 0.986327 0.985430 0.984495 0.983530 0.982547 0.981562 0.980596 0.979673 0.978820 0.978068 0.977444 0.976977 0.976687 0.976588 0.976687 0.976977 0.977444 0.978068 0.978820 0.979673 0.980596 0.981562 0.982547 0.983530 0.984495 0.985430 0.986327 0.987179 0.988112 0.987325 0.986493 0.985619 0.984709 0.983770 0.982817 0.981863 0.980929 0.980038 0.979216 0.978492 0.977893 0.977444 0.977166 0.977072 0.977166 0.977444 0.977893 0.978492 0.979216 0.980038 0.980929 0.981863 0.982817 0.983770 0.984709 0.985619 0.986493 0.987325 0.988287 0.987524 0.986719 0.985875 0.984998 0.984096 0.983181 0.982268 0.981376 0.980528 0.979747 0.979060 0.978492 0.978068 0.977805 0.977716 0.977805 0.978068 0.978492 0.979060 0.979747 0.980528 0.981376 0.982268 0.983181 0.984096 0.984998 0.985875 0.986719 0.987524 0.988505 0.987772 0.986999 0.986191 0.985354 0.984495 0.983627 0.982763 0.981922 0.981123 0.980390 0.979747 0.979216 0.978820 0.978575 0.978492 0.978575 0.978820 0.979216 0.979747 0.980390 0.981123 0.981922 0.982763 0.983627 0.984495 0.985354 0.986191 0.986999 0.987772 0.988761 0.988061 0.987325 0.986558 0.985766 0.984957 0.984141 0.983332 0.982547 0.981803 0.981123 0.980528 0.980038 0.979673 0.979447 0.979371 0.979447 0.979673 0.980038 0.980528 0.981123 0.981803 0.982547 0.983332 0.984141 0.984957 0.985766 0.986558 0.987325 0.988061 0.989049 0.988385 0.987690 0.986968 0.986225 0.985469 0.984709 0.983958 0.983232 0.982547 0.981922 0.981376 0.980929 0.980596 0.980390 0.980321 0.980390 0.980596 0.980929 0.981376 0.981922 0.982547 0.983232 0.983958 0.984709 0.985469 0.986225 0.986968 0.987690 0.988385 0.989364 0.988738 0.988086 0.987411 0.986719 0.986017 0.985315 0.984624 0.983958 0.983332 0.982763 0.982268 0.981863 0.981562 0.981376 0.981314 0.981376 0.981562 0.981863 0.982268 0.982763 0.983332 0.983958 0.984624 0.985315 0.986017 0.986719 0.987411 0.988086 0.988738 0.989699 0.989114 0.988505 0.987878 0.987238 0.986591 0.985946 0.985315 0.984709 0.984141 0.983627 0.983181 0.982817 0.982547 0.982381 0.982325 0.982381 0.982547 0.982817 0.983181 0.983627 0.984141 0.984709 0.985315 0.985946 0.986591 0.987238 0.987878 0.988505 0.989114 0.990049 0.989504 0.988940 0.988361 0.987772 0.987179 0.986591 0.986017 0.985469 0.984957 0.984495 0.984096 0.983770 0.983530 0.983382 0.983332 0.983382 0.983530 0.983770 0.984096 0.984495 0.984957 0.985469 0.986017 0.986591 0.987179 0.987772 0.988361 0.988940 0.989504 0.990410 0.989905 0.989384 0.988851 0.988312 0.987772 0.987238 0.986719 0.986225 0.985766 0.985354 0.984998 0.984709 0.984495 0.984364 0.984320 0.984364 0.984495 0.984709 0.984998 0.985354 0.985766 0.986225 0.986719 0.987238 0.987772 0.988312 0.988851 0.989384 0.989905 0.990776 0.990310 0.989831 0.989343 0.988851 0.988361 0.987878 0.987411 0.986968 0.986558 0.986191 0.985875 0.985619 0.985430 0.985315 0.985276 0.985315 0.985430 0.985619 0.985875 0.986191 0.986558 0.986968 0.987411 0.987878 0.988361 0.988851 0.989343 0.989831 0.990310 0.991144 0.990715 0.990276 0.989831 0.989384 0.988940 0.988505 0.988086 0.987690 0.987325 0.986999 0.986719 0.986493 0.986327 0.986225 0.986191 0.986225 0.986327 0.986493 0.986719 0.986999 0.987325 0.987690 0.988086 0.988505 0.988940 0.989384 0.989831 0.990276 0.990715 0.991509 0.991116 0.990715 0.990310 0.989905 0.989504 0.989114 0.988738 0.988385 0.988061 0.987772 0.987524 0.987325 0.987179 0.987090 0.987059 0.987090 0.987179 0.987325 0.987524 0.987772 0.988061 0.988385 0.988738 0.989114 0.989504 0.989905 0.990310 0.990715 0.991116 0.991509 0.991116 0.990715 0.990310 0.989905 0.989504 0.989114 0.988738 0.988385 0.988061 0.987772 0.987524 0.987325 0.987179 0.987090 0.987059 0.987090 0.987179 0.987325 0.987524 0.987772 0.988061 0.988385 0.988738 0.989114 0.989504 0.989905 0.990310 0.990715 0.991116 0.991116 0.990684 0.990242 0.989794 0.989343 0.988896 0.988458 0.988035 0.987636 0.987267 0.986938 0.986655 0.986427 0.986259 0.986157 0.986122 0.986157 0.986259 0.986427 0.986655 0.986938 0.987267 0.987636 0.988035 0.988458 0.988896 0.989343 0.989794 0.990242 0.990684 0.990715 0.990242 0.989756 0.989261 0.988761 0.988262 0.987772 0.987296 0.986845 0.986427 0.986052 0.985730 0.985469 0.985276 0.985158 0.985118 0.985158 0.985276 0.985469 0.985730 0.986052 0.986427 0.986845 0.987296 0.987772 0.988262 0.988761 0.989261 0.989756 0.990242 0.990310 0.989794 0.989261 0.988715 0.988163 0.987608 0.987059 0.986526 0.986017 0.985544 0.985118 0.984751 0.984452 0.984231 0.984096 0.984050 0.984096 0.984231 0.984452 0.984751 0.985118 0.985544 0.986017 0.986526 0.987059 0.987608 0.988163 0.988715 0.989261 0.989794 0.989905 0.989343 0.988761 0.988163 0.987552 0.986938 0.986327 0.985730 0.985158 0.984624 0.984141 0.983723 0.983382 0.983130 0.982975 0.982922 0.982975 0.983130 0.983382 0.983723 0.984141 0.984624 0.985158 0.985730 0.986327 0.986938 0.987552 0.988163 0.988761 0.989343 0.989504 0.988896 0.988262 0.987608 0.986938 0.986259 0.985582 0.984916 0.984276 0.983675 0.983130 0.982656 0.982268 0.981981 0.981803 0.981744 0.981803 0.981981 0.982268 0.982656 0.983130 0.983675 0.984276 0.984916 0.985582 0.986259 0.986938 0.987608 0.988262 0.988896 0.989114 0.988458 0.987772 0.987059 0.986327 0.985582 0.984834 0.984096 0.983382 0.982710 0.982097 0.981562 0.981123 0.980797 0.980596 0.980528 0.980596 0.980797 0.981123 0.981562 0.982097 0.982710 0.983382 0.984096 0.984834 0.985582 0.986327 0.987059 0.987772 0.988458 0.988738 0.988035 0.987296 0.986526 0.985730 0.984916 0.984096 0.983282 0.982492 0.981744 0.981059 0.980459 0.979966 0.979598 0.979371 0.979294 0.979371 0.979598 0.979966 0.980459 0.981059 0.981744 0.982492 0.983282 0.984096 0.984916 0.985730 0.986526 0.987296 0.988035 0.988385 0.987636 0.986845 0.986017 0.985158 0.984276 0.983382 0.982492 0.981623 0.980797 0.980038 0.979371 0.978820 0.978409 0.978154 0.978068 0.978154 0.978409 0.978820 0.979371 0.980038 0.980797 0.981623 0.982492 0.983382 0.984276 0.985158 0.986017 0.986845 0.987636 0.988061 0.987267 0.986427 0.985544 0.984624 0.983675 0.982710 0.981744 0.980797 0.979893 0.979060 0.978324 0.977716 0.977259 0.976977 0.976881 0.976977 0.977259 0.977716 0.978324 0.979060 0.979893 0.980797 0.981744 0.982710 0.983675 0.984624 0.985544 0.986427 0.987267 0.987772 0.986938 0.986052 0.985118 0.984141 0.983130 0.982097 0.981059 0.980038 0.979060 0.978154 0.977352 0.976687 0.976187 0.975877 0.975772 0.975877 0.976187 0.976687 0.977352 0.978154 0.979060 0.980038 0.981059 0.982097 0.983130 0.984141 0.985118 0.986052 0.986938 0.987524 0.986655 0.985730 0.984751 0.983723 0.982656 0.981562 0.980459 0.979371 0.978324 0.977352 0.976489 0.975772 0.975231 0.974896 0.974782 0.974896 0.975231 0.975772 0.976489 0.977352 0.978324 0.979371 0.980459 0.981562 0.982656 0.983723 0.984751 0.985730 0.986655 0.987325 0.986427 0.985469 0.984452 0.983382 0.982268 0.981123 0.979966 0.978820 0.977716 0.976687 0.975772 0.975009 0.974433 0.974075 0.973954 0.974075 0.974433 0.975009 0.975772 0.976687 0.977716 0.978820 0.979966 0.981123 0.982268 0.983382 0.984452 0.985469 0.986427 0.987179 0.986259 0.985276 0.984231 0.983130 0.981981 0.980797 0.979598 0.978409 0.977259 0.976187 0.975231 0.974433 0.973831 0.973456 0.973329 0.973456 0.973831 0.974433 0.975231 0.976187 0.977259 0.978409 0.979598 0.980797 0.981981 0.983130 0.984231 0.985276 0.986259 0.987090 0.986157 0.985158 0.984096 0.982975 0.981803 0.980596 0.979371 0.978154 0.976977 0.975877 0.974896 0.974075 0.973456 0.973070 0.972939 0.973070 0.973456 0.974075 0.974896 0.975877 0.976977 0.978154 0.979371 0.980596 0.981803 0.982975 0.984096 0.985158 0.986157 0.987059 0.986122 0.985118 0.984050 0.982922 0.981744 0.980528 0.979294 0.978068 0.976881 0.975772 0.974782 0.973954 0.973329 0.972939 0.972806 0.972939 0.973329 0.973954 0.974782 0.975772 0.976881 0.978068 0.979294 0.980528 0.981744 0.982922 0.984050 0.985118 0.986122 0.987090 0.986157 0.985158 0.984096 0.982975 0.981803 0.980596 0.979371 0.978154 0.976977 0.975877 0.974896 0.974075 0.973456 0.973070 0.972939 0.973070 0.973456 0.974075 0.974896 0.975877 0.976977 0.978154 0.979371 0.980596 0.981803 0.982975 0.984096 0.985158 0.986157 0.987179 0.986259 0.985276 0.984231 0.983130 0.981981 0.980797 0.979598 0.978409 0.977259 0.976187 0.975231 0.974433 0.973831 0.973456 0.973329 0.973456 0.973831 0.974433 0.975231 0.976187 0.977259 0.978409 0.979598 0.980797 0.981981 0.983130 0.984231 0.985276 0.986259 0.987325 0.986427 0.985469 0.984452 0.983382 0.982268 0.981123 0.979966 0.978820 0.977716 0.976687 0.975772 0.975009 0.974433 0.974075 0.973954 0.974075 0.974433 0.975009 0.975772 0.976687 0.977716 0.978820 0.979966 0.981123 0.982268 0.983382 0.984452 0.985469 0.986427 0.987524 0.986655 0.985730 0.984751 0.983723 0.982656 0.981562 0.980459 0.979371 0.978324 0.977352 0.976489 0.975772 0.975231 0.974896 0.974782 0.974896 0.975231 0.975772 0.976489 0.977352 0.978324 0.979371 0.980459 0.981562 0.982656 0.983723 0.984751 0.985730 0.986655 0.987772 0.986938 0.986052 0.985118 0.984141 0.983130 0.982097 0.981059 0.980038 0.979060 0.978154 0.977352 0.976687 0.976187 0.975877 0.975772 0.975877 0.976187 0.976687 0.977352 0.978154 0.979060 0.980038 0.981059 0.982097 0.983130 0.984141 0.985118 0.986052 0.986938 0.988061 0.987267 0.986427 0.985544 0.984624 0.983675 0.982710 0.981744 0.980797 0.979893 0.979060 0.978324 0.977716 0.977259 0.976977 0.976881 0.976977 0.977259 0.977716 0.978324 0.979060 0.979893 0.980797 0.981744 0.982710 0.983675 0.984624 0.985544 0.986427 0.987267 0.988385 0.987636 0.986845 0.986017 0.985158 0.984276 0.983382 0.982492 0.981623 0.980797 0.980038 0.979371 0.978820 0.978409 0.978154 0.978068 0.978154 0.978409 0.978820 0.979371 0.980038 0.980797 0.981623 0.982492 0.983382 0.984276 0.985158 0.986017 0.986845 0.987636 0.988738 0.988035 0.987296 0.986526 0.985730 0.984916 0.984096 0.983282 0.982492 0.981744 0.981059 0.980459 0.979966 0.979598 0.979371 0.979294 0.979371 0.979598 0.979966 0.980459 0.981059 0.981744 0.982492 0.983282 0.984096 0.984916 0.985730 0.986526 0.987296 0.988035 0.989114 0.988458 0.987772 0.987059 0.986327 0.985582 0.984834 0.984096 0.983382 0.982710 0.982097 0.981562 0.981123 0.980797 0.980596 0.980528 0.980596 0.980797 0.981123 0.981562 0.982097 0.982710 0.983382 0.984096 0.984834 0.985582 0.986327 0.987059 0.987772 0.988458 0.989504 0.988896 0.988262 0.987608 0.986938 0.986259 0.985582 0.984916 0.984276 0.983675 0.983130 0.982656 0.982268 0.981981 0.981803 0.981744 0.981803 0.981981 0.982268 0.982656 0.983130 0.983675 0.984276 0.984916 0.985582 0.986259 0.986938 0.987608 0.988262 0.988896 0.989905 0.989343 0.988761 0.988163 0.987552 0.986938 0.986327 0.985730 0.985158 0.984624 0.984141 0.983723 0.983382 0.983130 0.982975 0.982922 0.982975 0.983130 0.983382 0.983723 0.984141 0.984624 0.985158 0.985730 0.986327 0.986938 0.987552 0.988163 0.988761 0.989343 0.990310 0.989794 0.989261 0.988715 0.988163 0.987608 0.987059 0.986526 0.986017 0.985544 0.985118 0.984751 0.984452 0.984231 0.984096 0.984050 0.984096 0.984231 0.984452 0.984751 0.985118 0.985544 0.986017 0.986526 0.987059 0.987608 0.988163 0.988715 0.989261 0.989794 0.990715 0.990242 0.989756 0.989261 0.988761 0.988262 0.987772 0.987296 0.986845 0.986427 0.986052 0.985730 0.985469 0.985276 0.985158 0.985118 0.985158 0.985276 0.985469 0.985730 0.986052 0.986427 0.986845 0.987296 0.987772 0.988262 0.988761 0.989261 0.989756 0.990242 0.991116 0.990684 0.990242 0.989794 0.989343 0.988896 0.988458 0.988035 0.987636 0.987267 0.986938 0.986655 0.986427 0.986259 0.986157 0.986122 0.986157 0.986259 0.986427 0.986655 0.986938 0.987267 0.987636 0.988035 0.988458 0.988896 0.989343 0.989794 0.990242 0.990684 0.991144 0.990715 0.990276 0.989831 0.989384 0.988940 0.988505 0.988086 0.987690 0.987325 0.986999 0.986719 0.986493 0.986327 0.986225 0.986191 0.986225 0.986327 0.986493 0.986719 0.986999 0.987325 0.987690 0.988086 0.988505 0.988940 0.989384 0.989831 0.990276 0.990715 0.990715 0.990242 0.989756 0.989261 0.988761 0.988262 0.987772 0.987296 0.986845 0.986427 0.986052 0.985730 0.985469 0.985276 0.985158 0.985118 0.985158 0.985276 0.985469 0.985730 0.986052 0.986427 0.986845 0.987296 0.987772 0.988262 0.988761 0.989261 0.989756 0.990242 0.990276 0.989756 0.989219 0.988669 0.988112 0.987552 0.986999 0.986460 0.985946 0.985469 0.985038 0.984666 0.984364 0.984141 0.984004 0.983958 0.984004 0.984141 0.984364 0.984666 0.985038 0.985469 0.985946 0.986460 0.986999 0.987552 0.988112 0.988669 0.989219 0.989756 0.989831 0.989261 0.988669 0.988061 0.987440 0.986814 0.986191 0.985582 0.984998 0.984452 0.983958 0.983530 0.983181 0.982922 0.982763 0.982710 0.982763 0.982922 0.983181 0.983530 0.983958 0.984452 0.984998 0.985582 0.986191 0.986814 0.987440 0.988061 0.988669 0.989261 0.989384 0.988761 0.988112 0.987440 0.986751 0.986052 0.985354 0.984666 0.984004 0.983382 0.982817 0.982324 0.981922 0.981623 0.981439 0.981376 0.981439 0.981623 0.981922 0.982324 0.982817 0.983382 0.984004 0.984666 0.985354 0.986052 0.986751 0.987440 0.988112 0.988761 0.988940 0.988262 0.987552 0.986814 0.986052 0.985276 0.984495 0.983723 0.982975 0.982268 0.981623 0.981059 0.980596 0.980251 0.980038 0.979966 0.980038 0.980251 0.980596 0.981059 0.981623 0.982268 0.982975 0.983723 0.984495 0.985276 0.986052 0.986814 0.987552 0.988262 0.988505 0.987772 0.986999 0.986191 0.985354 0.984495 0.983627 0.982763 0.981922 0.981123 0.980390 0.979747 0.979216 0.978820 0.978575 0.978492 0.978575 0.978820 0.979216 0.979747 0.980390 0.981123 0.981922 0.982763 0.983627 0.984495 0.985354 0.986191 0.986999 0.987772 0.988086 0.987296 0.986460 0.985582 0.984666 0.983723 0.982763 0.981803 0.980863 0.979966 0.979138 0.978409 0.977805 0.977352 0.977072 0.976977 0.977072 0.977352 0.977805 0.978409 0.979138 0.979966 0.980863 0.981803 0.982763 0.983723 0.984666 0.985582 0.986460 0.987296 0.987690 0.986845 0.985946 0.984998 0.984004 0.982975 0.981922 0.980863 0.979820 0.978820 0.977893 0.977072 0.976390 0.975877 0.975558 0.975450 0.975558 0.975877 0.976390 0.977072 0.977893 0.978820 0.979820 0.980863 0.981922 0.982975 0.984004 0.984998 0.985946 0.986845 0.987325 0.986427 0.985469 0.984452 0.983382 0.982268 0.981123 0.979966 0.978820 0.977716 0.976687 0.975772 0.975009 0.974433 0.974075 0.973954 0.974075 0.974433 0.975009 0.975772 0.976687 0.977716 0.978820 0.979966 0.981123 0.982268 0.983382 0.984452 0.985469 0.986427 0.986999 0.986052 0.985038 0.983958 0.982817 0.981623 0.980390 0.979138 0.977893 0.976687 0.975558 0.974551 0.973707 0.973070 0.972672 0.972537 0.972672 0.973070 0.973707 0.974551 0.975558 0.976687 0.977893 0.979138 0.980390 0.981623 0.982817 0.983958 0.985038 0.986052 0.986719 0.985730 0.984666 0.983530 0.982324 0.981059 0.979747 0.978409 0.977072 0.975772 0.974551 0.973456 0.972537 0.971841 0.971406 0.971258 0.971406 0.971841 0.972537 0.973456 0.974551 0.975772 0.977072 0.978409 0.979747 0.981059 0.982324 0.983530 0.984666 0.985730 0.986493 0.985469 0.984364 0.983181 0.981922 0.980596 0.979216 0.977805 0.976390 0.975009 0.973707 0.972537 0.971553 0.970805 0.970337 0.970178 0.970337 0.970805 0.971553 0.972537 0.973707 0.975009 0.976390 0.977805 0.979216 0.980596 0.981922 0.983181 0.984364 0.985469 0.986327 0.985276 0.984141 0.982922 0.981623 0.980251 0.978820 0.977352 0.975877 0.974433 0.973070 0.971841 0.970805 0.970017 0.969524 0.969355 0.969524 0.970017 0.970805 0.971841 0.973070 0.974433 0.975877 0.977352 0.978820 0.980251 0.981623 0.982922 0.984141 0.985276 0.986225 0.985158 0.984004 0.982763 0.981439 0.980038 0.978575 0.977072 0.975558 0.974075 0.972672 0.971406 0.970337 0.969524 0.969014 0.968840 0.969014 0.969524 0.970337 0.971406 0.972672 0.974075 0.975558 0.977072 0.978575 0.980038 0.981439 0.982763 0.984004 0.985158 0.986191 0.985118 0.983958 0.982710 0.981376 0.979966 0.978492 0.976977 0.975450 0.973954 0.972537 0.971258 0.970178 0.969355 0.968840 0.968664 0.968840 0.969355 0.970178 0.971258 0.972537 0.973954 0.975450 0.976977 0.978492 0.979966 0.981376 0.982710 0.983958 0.985118 0.986225 0.985158 0.984004 0.982763 0.981439 0.980038 0.978575 0.977072 0.975558 0.974075 0.972672 0.971406 0.970337 0.969524 0.969014 0.968840 0.969014 0.969524 0.970337 0.971406 0.972672 0.974075 0.975558 0.977072 0.978575 0.980038 0.981439 0.982763 0.984004 0.985158 0.986327 0.985276 0.984141 0.982922 0.981623 0.980251 0.978820 0.977352 0.975877 0.974433 0.973070 0.971841 0.970805 0.970017 0.969524 0.969355 0.969524 0.970017 0.970805 0.971841 0.973070 0.974433 0.975877 0.977352 0.978820 0.980251 0.981623 0.982922 0.984141 0.985276 0.986493 0.985469 0.984364 0.983181 0.981922 0.980596 0.979216 0.977805 0.976390 0.975009 0.973707 0.972537 0.971553 0.970805 0.970337 0.970178 0.970337 0.970805 0.971553 0.972537 0.973707 0.975009 0.976390 0.977805 0.979216 0.980596 0.981922 0.983181 0.984364 0.985469 0.986719 0.985730 0.984666 0.983530 0.982324 0.981059 0.979747 0.978409 0.977072 0.975772 0.974551 0.973456 0.972537 0.971841 0.971406 0.971258 0.971406 0.971841 0.972537 0.973456 0.974551 0.975772 0.977072 0.978409 0.979747 0.981059 0.982324 0.983530 0.984666 0.985730 0.986999 0.986052 0.985038 0.983958 0.982817 0.981623 0.980390 0.979138 0.977893 0.976687 0.975558 0.974551 0.973707 0.973070 0.972672 0.972537 0.972672 0.973070 0.973707 0.974551 0.975558 0.976687 0.977893 0.979138 0.980390 0.981623 0.982817 0.983958 0.985038 0.986052 0.987325 0.986427 0.985469 0.984452 0.983382 0.982268 0.981123 0.979966 0.978820 0.977716 0.976687 0.975772 0.975009 0.974433 0.974075 0.973954 0.974075 0.974433 0.975009 0.975772 0.976687 0.977716 0.978820 0.979966 0.981123 0.982268 0.983382 0.984452 0.985469 0.986427 0.987690 0.986845 0.985946 0.984998 0.984004 0.982975 0.981922 0.980863 0.979820 0.978820 0.977893 0.977072 0.976390 0.975877 0.975558 0.975450 0.975558 0.975877 0.976390 0.977072 0.977893 0.978820 0.979820 0.980863 0.981922 0.982975 0.984004 0.984998 0.985946 0.986845 0.988086 0.987296 0.986460 0.985582 0.984666 0.983723 0.982763 0.981803 0.980863 0.979966 0.979138 0.978409 0.977805 0.977352 0.977072 0.976977 0.977072 0.977352 0.977805 0.978409 0.979138 0.979966 0.980863 0.981803 0.982763 0.983723 0.984666 0.985582 0.986460 0.987296 0.988505 0.987772 0.986999 0.986191 0.985354 0.984495 0.983627 0.982763 0.981922 0.981123 0.980390 0.979747 0.979216 0.978820 0.978575 0.978492 0.978575 0.978820 0.979216 0.979747 0.980390 0.981123 0.981922 0.982763 0.983627 0.984495 0.985354 0.986191 0.986999 0.987772 0.988940 0.988262 0.987552 0.986814 0.986052 0.985276 0.984495 0.983723 0.982975 0.982268 0.981623 0.981059 0.980596 0.980251 0.980038 0.979966 0.980038 0.980251 0.980596 0.981059 0.981623 0.982268 0.982975 0.983723 0.984495 0.985276 0.986052 0.986814 0.987552 0.988262 0.989384 0.988761 0.988112 0.987440 0.986751 0.986052 0.985354 0.984666 0.984004 0.983382 0.982817 0.982324 0.981922 0.981623 0.981439 0.981376 0.981439 0.981623 0.981922 0.982324 0.982817 0.983382 0.984004 0.984666 0.985354 0.986052 0.986751 0.987440 0.988112 0.988761 0.989831 0.989261 0.988669 0.988061 0.987440 0.986814 0.986191 0.985582 0.984998 0.984452 0.983958 0.983530 0.983181 0.982922 0.982763 0.982710 0.982763 0.982922 0.983181 0.983530 0.983958 0.984452 0.984998 0.985582 0.986191 0.986814 0.987440 0.988061 0.988669 0.989261 0.990276 0.989756 0.989219 0.988669 0.988112 0.987552 0.986999 0.986460 0.985946 0.985469 0.985038 0.984666 0.984364 0.984141 0.984004 0.983958 0.984004 0.984141 0.984364 0.984666 0.985038 0.985469 0.985946 0.986460 0.986999 0.987552 0.988112 0.988669 0.989219 0.989756 0.990715 0.990242 0.989756 0.989261 0.988761 0.988262 0.987772 0.987296 0.986845 0.986427 0.986052 0.985730 0.985469 0.985276 0.985158 0.985118 0.985158 0.985276 0.985469 0.985730 0.986052 0.986427 0.986845 0.987296 0.987772 0.988262 0.988761 0.989261 0.989756 0.990242 0.990776 0.990310 0.989831 0.989343 0.988851 0.988361 0.987878 0.987411 0.986968 0.986558 0.986191 0.985875 0.985619 0.985430 0.985315 0.985276 0.985315 0.985430 0.985619 0.985875 0.986191 0.986558 0.986968 0.987411 0.987878 0.988361 0.988851 0.989343 0.989831 0.990310 0.990310 0.989794 0.989261 0.988715 0.988163 0.987608 0.987060 0.986526 0.986017 0.985544 0.985118 0.984751 0.984452 0.984231 0.984096 0.984050 0.984096 0.984231 0.984452 0.984751 0.985118 0.985544 0.986017 0.986526 0.987060 0.987608 0.988163 0.988715 0.989261 0.989794 0.989831 0.989261 0.988669 0.988061 0.987440 0.986814 0.986191 0.985582 0.984998 0.984452 0.983958 0.983530 0.983181 0.982922 0.982763 0.982710 0.982763 0.982922 0.983181 0.983530 0.983958 0.984452 0.984998 0.985582 0.986191 0.986814 0.987440 0.988061 0.988669 0.989261 0.989343 0.988715 0.988061 0.987383 0.986687 0.985982 0.985276 0.984581 0.983911 0.983282 0.982710 0.982211 0.981803 0.981500 0.981314 0.981251 0.981314 0.981500 0.981803 0.982211 0.982710 0.983282 0.983911 0.984581 0.985276 0.985982 0.986687 0.987383 0.988061 0.988715 0.988851 0.988163 0.987440 0.986687 0.985911 0.985118 0.984320 0.983530 0.982763 0.982039 0.981376 0.980797 0.980321 0.979966 0.979747 0.979673 0.979747 0.979966 0.980321 0.980797 0.981376 0.982039 0.982763 0.983530 0.984320 0.985118 0.985911 0.986687 0.987440 0.988163 0.988361 0.987608 0.986814 0.985982 0.985118 0.984231 0.983332 0.982436 0.981562 0.980730 0.979966 0.979294 0.978739 0.978324 0.978068 0.977981 0.978068 0.978324 0.978739 0.979294 0.979966 0.980730 0.981562 0.982436 0.983332 0.984231 0.985118 0.985982 0.986814 0.987608 0.987878 0.987060 0.986191 0.985276 0.984320 0.983332 0.982324 0.981314 0.980321 0.979371 0.978492 0.977716 0.977072 0.976588 0.976289 0.976187 0.976289 0.976588 0.977072 0.977716 0.978492 0.979371 0.980321 0.981314 0.982324 0.983332 0.984320 0.985276 0.986191 0.987060 0.987411 0.986526 0.985582 0.984581 0.983530 0.982436 0.981314 0.980180 0.979060 0.977981 0.976977 0.976085 0.975341 0.974782 0.974433 0.974315 0.974433 0.974782 0.975341 0.976085 0.976977 0.977981 0.979060 0.980180 0.981314 0.982436 0.983530 0.984581 0.985582 0.986526 0.986968 0.986017 0.984998 0.983911 0.982763 0.981562 0.980321 0.979060 0.977805 0.976588 0.975450 0.974433 0.973582 0.972939 0.972537 0.972401 0.972537 0.972939 0.973582 0.974433 0.975450 0.976588 0.977805 0.979060 0.980321 0.981562 0.982763 0.983911 0.984998 0.986017 0.986558 0.985544 0.984452 0.983282 0.982039 0.980730 0.979371 0.977981 0.976588 0.975231 0.973954 0.972806 0.971841 0.971109 0.970651 0.970495 0.970651 0.971109 0.971841 0.972806 0.973954 0.975231 0.976588 0.977981 0.979371 0.980730 0.982039 0.983282 0.984452 0.985544 0.986191 0.985118 0.983958 0.982710 0.981376 0.979966 0.978492 0.976977 0.975450 0.973954 0.972537 0.971258 0.970178 0.969355 0.968840 0.968664 0.968840 0.969355 0.970178 0.971258 0.972537 0.973954 0.975450 0.976977 0.978492 0.979966 0.981376 0.982710 0.983958 0.985118 0.985875 0.984751 0.983530 0.982211 0.980797 0.979294 0.977716 0.976085 0.974433 0.972806 0.971258 0.969854 0.968664 0.967754 0.967183 0.966988 0.967183 0.967754 0.968664 0.969854 0.971258 0.972806 0.974433 0.976085 0.977716 0.979294 0.980797 0.982211 0.983530 0.984751 0.985619 0.984452 0.983181 0.981803 0.980321 0.978739 0.977072 0.975341 0.973582 0.971841 0.970178 0.968664 0.967375 0.966388 0.965767 0.965554 0.965767 0.966388 0.967375 0.968664 0.970178 0.971841 0.973582 0.975341 0.977072 0.978739 0.980321 0.981803 0.983181 0.984452 0.985430 0.984231 0.982922 0.981500 0.979966 0.978324 0.976588 0.974782 0.972939 0.971109 0.969355 0.967754 0.966388 0.965339 0.964678 0.964452 0.964678 0.965339 0.966388 0.967754 0.969355 0.971109 0.972939 0.974782 0.976588 0.978324 0.979966 0.981500 0.982922 0.984231 0.985315 0.984096 0.982763 0.981314 0.979747 0.978068 0.976289 0.974433 0.972537 0.970651 0.968840 0.967183 0.965767 0.964678 0.963991 0.963756 0.963991 0.964678 0.965767 0.967183 0.968840 0.970651 0.972537 0.974433 0.976289 0.978068 0.979747 0.981314 0.982763 0.984096 0.985276 0.984050 0.982710 0.981251 0.979673 0.977981 0.976187 0.974315 0.972401 0.970495 0.968664 0.966988 0.965554 0.964452 0.963756 0.963518 0.963756 0.964452 0.965554 0.966988 0.968664 0.970495 0.972401 0.974315 0.976187 0.977981 0.979673 0.981251 0.982710 0.984050 0.985315 0.984096 0.982763 0.981314 0.979747 0.978068 0.976289 0.974433 0.972537 0.970651 0.968840 0.967183 0.965767 0.964678 0.963991 0.963756 0.963991 0.964678 0.965767 0.967183 0.968840 0.970651 0.972537 0.974433 0.976289 0.978068 0.979747 0.981314 0.982763 0.984096 0.985430 0.984231 0.982922 0.981500 0.979966 0.978324 0.976588 0.974782 0.972939 0.971109 0.969355 0.967754 0.966388 0.965339 0.964678 0.964452 0.964678 0.965339 0.966388 0.967754 0.969355 0.971109 0.972939 0.974782 0.976588 0.978324 0.979966 0.981500 0.982922 0.984231 0.985619 0.984452 0.983181 0.981803 0.980321 0.978739 0.977072 0.975341 0.973582 0.971841 0.970178 0.968664 0.967375 0.966388 0.965767 0.965554 0.965767 0.966388 0.967375 0.968664 0.970178 0.971841 0.973582 0.975341 0.977072 0.978739 0.980321 0.981803 0.983181 0.984452 0.985875 0.984751 0.983530 0.982211 0.980797 0.979294 0.977716 0.976085 0.974433 0.972806 0.971258 0.969854 0.968664 0.967754 0.967183 0.966988 0.967183 0.967754 0.968664 0.969854 0.971258 0.972806 0.974433 0.976085 0.977716 0.979294 0.980797 0.982211 0.983530 0.984751 0.986191 0.985118 0.983958 0.982710 0.981376 0.979966 0.978492 0.976977 0.975450 0.973954 