# vtk DataFile Version 2.0
one liner comment goes here
ASCII
DATASET STRUCTURED_POINTS
DIMENSIONS 30 30 30
ORIGIN 0 0 0
SPACING 1 1 1
POINT_DATA 27000
VECTORS anyoldnameforthisvolume float
0.887155 0.000000 0.443578 0.880263 0.030354 0.455309 0.871947 0.062282 0.467114 0.862038 0.095782 0.478910 0.850362 0.130825 0.490593 0.836745 0.167349 0.502047 0.821016 0.205254 0.513135 0.803019 0.244397 0.523708 0.782620 0.284589 0.533604 0.759714 0.325592 0.542653 0.734243 0.367122 0.550682 0.706199 0.408852 0.557526 0.675635 0.450423 0.563029 0.642670 0.491454 0.567062 0.607492 0.531556 0.569524 0.570352 0.570352 0.570352 0.531556 0.607492 0.569524 0.491454 0.642670 0.567062 0.450423 0.675635 0.563029 0.408852 0.706199 0.557526 0.367122 0.734243 0.550682 0.325592 0.759714 0.542653 0.284589 0.782620 0.533604 0.244397 0.803019 0.523708 0.205254 0.821016 0.513135 0.167349 0.836745 0.502047 0.130825 0.850362 0.490593 0.095782 0.862038 0.478910 0.062282 0.871947 0.467114 0.030354 0.880263 0.455309 0.880263 -0.030354 0.455309 0.873649 0.000000 0.468026 0.865587 0.032059 0.480882 0.855894 0.065838 0.493785 0.844378 0.101325 0.506627 0.830841 0.138473 0.519276 0.815089 0.177193 0.531580 0.796941 0.217347 0.543369 0.776234 0.258745 0.554453 0.752842 0.301137 0.564632 0.726687 0.344220 0.573700 0.697747 0.387637 0.581456 0.666074 0.430989 0.587712 0.631795 0.473846 0.592307 0.595117 0.515768 0.595117 0.556325 0.556325 0.596063 0.515768 0.595117 0.595117 0.473846 0.631795 0.592307 0.430989 0.666074 0.587712 0.387637 0.697747 0.581456 0.344220 0.726687 0.573700 0.301137 0.752842 0.564632 0.258745 0.776234 0.554453 0.217347 0.796941 0.543369 0.177193 0.815089 0.531580 0.138473 0.830841 0.519276 0.101325 0.844378 0.506627 0.065838 0.855894 0.493785 0.032059 0.865587 0.480882 0.000000 0.873649 0.468026 0.871947 -0.062282 0.467114 0.865587 -0.032059 0.480882 0.857763 0.000000 0.494863 0.848274 0.033931 0.508965 0.836909 0.069742 0.523068 0.823447 0.107406 0.537031 0.807668 0.146849 0.550682 0.789360 0.187943 0.563829 0.768334 0.230500 0.576250 0.744435 0.274266 0.587712 0.717561 0.318916 0.597968 0.687676 0.364064 0.606773 0.654826 0.409266 0.613899 0.619147 0.454041 0.619147 0.580871 0.497890 0.622362 0.540319 0.540319 0.623445 0.497890 0.580871 0.622362 0.454041 0.619147 0.619147 0.409266 0.654826 0.613899 0.364064 0.687676 0.606773 0.318916 0.717561 0.597968 0.274266 0.744435 0.587712 0.230500 0.768334 0.576250 0.187943 0.789360 0.563829 0.146849 0.807668 0.550682 0.107406 0.823447 0.537031 0.069742 0.836909 0.523068 0.033931 0.848274 0.508965 0.000000 0.857763 0.494863 -0.032059 0.865587 0.480882 0.862038 -0.095782 0.478910 0.855894 -0.065838 0.493785 0.848274 -0.033931 0.508965 0.838961 0.000000 0.524351 0.827724 0.035988 0.539820 0.814317 0.074029 0.555216 0.798493 0.114070 0.570352 0.780008 0.156002 0.585006 0.758641 0.199642 0.598927 0.734205 0.244735 0.611838 0.706571 0.290941 0.623445 0.675684 0.337842 0.633454 0.641583 0.384950 0.641583 0.604415 0.431725 0.647587 0.564436 0.477600 0.651272 0.522012 0.522012 0.652515 0.477600 0.564436 0.651272 0.431725 0.604415 0.647587 0.384950 0.641583 0.641583 0.337842 0.675684 0.633454 0.290941 0.706571 0.623445 0.244735 0.734205 0.611838 0.199642 0.758641 0.598927 0.156002 0.780008 0.585006 0.114070 0.798493 0.570352 0.074029 0.814317 0.555216 0.035988 0.827724 0.539820 0.000000 0.838961 0.524351 -0.033931 0.848274 0.508965 -0.065838 0.855894 0.493785 0.850362 -0.130825 0.490593 0.844378 -0.101325 0.506627 0.836909 -0.069742 0.523068 0.827724 -0.035988 0.539820 0.816570 0.000000 0.556753 0.803180 0.038247 0.573700 0.787275 0.078728 0.590456 0.768579 0.121355 0.606773 0.746835 0.165963 0.622362 0.721819 0.212300 0.636899 0.693373 0.260015 0.650037 0.661418 0.308662 0.661418 0.625986 0.357707 0.670700 0.587233 0.406546 0.677576 0.545445 0.454537 0.681806 0.501038 0.501038 0.683234 0.454537 0.545445 0.681806 0.406546 0.587233 0.677576 0.357707 0.625986 0.670700 0.308662 0.661418 0.661418 0.260015 0.693373 0.650037 0.212300 0.721819 0.636899 0.165963 0.746835 0.622362 0.121355 0.768579 0.606773 0.078728 0.787275 0.590456 0.038247 0.803180 0.573700 0.000000 0.816570 0.556753 -0.035988 0.827724 0.539820 -0.069742 0.836909 0.523068 -0.101325 0.844378 0.506627 0.836745 -0.167349 0.502047 0.830841 -0.138473 0.519276 0.823447 -0.107406 0.537031 0.814317 -0.074029 0.555216 0.803180 -0.038247 0.573700 0.789743 0.000000 0.592307 0.773698 0.040721 0.610815 0.754735 0.083859 0.628946 0.732556 0.129275 0.646373 0.706902 0.176725 0.662720 0.677576 0.225859 0.677576 0.644477 0.276204 0.690511 0.607624 0.327182 0.701105 0.567185 0.378123 0.708981 0.523481 0.428303 0.713838 0.476986 0.476986 0.715479 0.428303 0.523481 0.713838 0.378123 0.567185 0.708981 0.327182 0.607624 0.701105 0.276204 0.644477 0.690511 0.225859 0.677576 0.677576 0.176725 0.706902 0.662720 0.129275 0.732556 0.646373 0.083859 0.754735 0.628946 0.040721 0.773698 0.610815 0.000000 0.789743 0.592307 -0.038247 0.803180 0.573700 -0.074029 0.814317 0.555216 -0.107406 0.823447 0.537031 -0.138473 0.830841 0.519276 0.821016 -0.205254 0.513135 0.815089 -0.177193 0.531580 0.807668 -0.146849 0.550682 0.798493 -0.114070 0.570352 0.787275 -0.078728 0.590456 0.773698 -0.040721 0.610815 0.757425 0.000000 0.631188 0.738109 0.043418 0.651272 0.715413 0.089427 0.670700 0.689037 0.137807 0.689037 0.658746 0.188213 0.705799 0.624410 0.240158 0.720473 0.586039 0.293019 0.732548 0.543810 0.346061 0.741559 0.498087 0.398469 0.747130 0.449409 0.449409 0.749015 0.398469 0.498087 0.747130 0.346061 0.543810 0.741559 0.293019 0.586039 0.732548 0.240158 0.624410 0.720473 0.188213 0.658746 0.705799 0.137807 0.689037 0.689037 0.089427 0.715413 0.670700 0.043418 0.738109 0.651272 0.000000 0.757425 0.631188 -0.040721 0.773698 0.610815 -0.078728 0.787275 0.590456 -0.114070 0.798493 0.570352 -0.146849 0.807668 0.550682 -0.177193 0.815089 0.531580 0.803019 -0.244397 0.523708 0.796941 -0.217347 0.543369 0.789360 -0.187943 0.563829 0.780008 -0.156002 0.585006 0.768579 -0.121355 0.606773 0.754735 -0.083859 0.628946 0.738109 -0.043418 0.651272 0.718320 0.000000 0.673425 0.694992 0.046333 0.694992 0.667781 0.095397 0.715479 0.636414 0.146865 0.734324 0.600732 0.200244 0.750915 0.560734 0.254879 0.764637 0.516612 0.309967 0.774917 0.468774 0.364602 0.781291 0.417840 0.417840 0.783451 0.364602 0.468774 0.781291 0.309967 0.516612 0.774917 0.254879 0.560734 0.764637 0.200244 0.600732 0.750915 0.146865 0.636414 0.734324 0.095397 0.667781 0.715479 0.046333 0.694992 0.694992 0.000000 0.718320 0.673425 -0.043418 0.738109 0.651272 -0.083859 0.754735 0.628946 -0.121355 0.768579 0.606773 -0.156002 0.780008 0.585006 -0.187943 0.789360 0.563829 -0.217347 0.796941 0.543369 0.782620 -0.284589 0.533604 0.776234 -0.258745 0.554453 0.768334 -0.230500 0.576250 0.758641 -0.199642 0.598927 0.746835 -0.165963 0.622362 0.732556 -0.129275 0.646373 0.715413 -0.089427 0.670700 0.694992 -0.046333 0.694992 0.670877 0.000000 0.718797 0.642685 0.049437 0.741559 0.610104 0.101684 0.762630 0.572947 0.156258 0.781291 0.531203 0.212481 0.796804 0.485086 0.269492 0.808476 0.435058 0.326294 0.815734 0.381826 0.381826 0.818198 0.326294 0.435058 0.815734 0.269492 0.485086 0.808476 0.212481 0.531203 0.796804 0.156258 0.572947 0.781291 0.101684 0.610104 0.762630 0.049437 0.642685 0.741559 0.000000 0.670877 0.718797 -0.046333 0.694992 0.694992 -0.089427 0.715413 0.670700 -0.129275 0.732556 0.646373 -0.165963 0.746835 0.622362 -0.199642 0.758641 0.598927 -0.230500 0.768334 0.576250 -0.258745 0.776234 0.554453 0.759714 -0.325592 0.542653 0.752842 -0.301137 0.564632 0.744435 -0.274266 0.587712 0.734205 -0.244735 0.611838 0.721819 -0.212300 0.636899 0.706902 -0.176725 0.662720 0.689037 -0.137807 0.689037 0.667781 -0.095397 0.715479 0.642685 -0.049437 0.741559 0.613328 0.000000 0.766660 0.579364 0.052669 0.790042 0.540582 0.108116 0.810874 0.496970 0.165657 0.828283 0.448767 0.224384 0.841438 0.396500 0.283214 0.849643 0.340973 0.340973 0.852433 0.283214 0.396500 0.849643 0.224384 0.448767 0.841438 0.165657 0.496970 0.828283 0.108116 0.540582 0.810874 0.052669 0.579364 0.790042 0.000000 0.613328 0.766660 -0.049437 0.642685 0.741559 -0.095397 0.667781 0.715479 -0.137807 0.689037 0.689037 -0.176725 0.706902 0.662720 -0.212300 0.721819 0.636899 -0.244735 0.734205 0.611838 -0.274266 0.744435 0.587712 -0.301137 0.752842 0.564632 0.734243 -0.367122 0.550682 0.726687 -0.344220 0.573700 0.717561 -0.318916 0.597968 0.706571 -0.290941 0.623445 0.693373 -0.260015 0.650037 0.677576 -0.225859 0.677576 0.658746 -0.188213 0.705799 0.636414 -0.146865 0.734324 0.610104 -0.101684 0.762630 0.579364 -0.052669 0.790042 0.543823 0.000000 0.815734 0.503254 0.055917 0.838757 0.457651 0.114413 0.858096 0.407294 0.174554 0.872772 0.352781 0.235188 0.881953 0.295026 0.295026 0.885079 0.235188 0.352781 0.881953 0.174554 0.407294 0.872772 0.114413 0.457651 0.858096 0.055917 0.503254 0.838757 0.000000 0.543823 0.815734 -0.052669 0.579364 0.790042 -0.101684 0.610104 0.762630 -0.146865 0.636414 0.734324 -0.188213 0.658746 0.705799 -0.225859 0.677576 0.677576 -0.260015 0.693373 0.650037 -0.290941 0.706571 0.623445 -0.318916 0.717561 0.597968 -0.344220 0.726687 0.573700 0.706199 -0.408852 0.557526 0.697747 -0.387637 0.581456 0.687676 -0.364064 0.606773 0.675684 -0.337842 0.633454 0.661418 -0.308662 0.661418 0.644477 -0.276204 0.690511 0.624410 -0.240158 0.720473 0.600732 -0.200244 0.750915 0.572947 -0.156258 0.781291 0.540582 -0.108116 0.810874 0.503254 -0.055917 0.838757 0.460734 0.000000 0.863876 0.413037 0.059005 0.885079 0.360493 0.120164 0.901233 0.303789 0.182273 0.911367 0.243953 0.243953 0.914823 0.182273 0.303789 0.911367 0.120164 0.360493 0.901233 0.059005 0.413037 0.885079 0.000000 0.460734 0.863876 -0.055917 0.503254 0.838757 -0.108116 0.540582 0.810874 -0.156258 0.572947 0.781291 -0.200244 0.600732 0.750915 -0.240158 0.624410 0.720473 -0.276204 0.644477 0.690511 -0.308662 0.661418 0.661418 -0.337842 0.675684 0.633454 -0.364064 0.687676 0.606773 -0.387637 0.697747 0.581456 0.675635 -0.450423 0.563029 0.666074 -0.430989 0.587712 0.654826 -0.409266 0.613899 0.641583 -0.384950 0.641583 0.625986 -0.357707 0.670700 0.607624 -0.327182 0.701105 0.586039 -0.293019 0.732548 0.560734 -0.254879 0.764637 0.531203 -0.212481 0.796804 0.496970 -0.165657 0.828283 0.457651 -0.114413 0.858096 0.413037 -0.059005 0.885079 0.363180 0.000000 0.907951 0.308479 0.061696 0.925436 0.249715 0.124858 0.936433 0.188038 0.188038 0.940188 0.124858 0.249715 0.936433 0.061696 0.308479 0.925436 0.000000 0.363180 0.907951 -0.059005 0.413037 0.885079 -0.114413 0.457651 0.858096 -0.165657 0.496970 0.828283 -0.212481 0.531203 0.796804 -0.254879 0.560734 0.764637 -0.293019 0.586039 0.732548 -0.327182 0.607624 0.701105 -0.357707 0.625986 0.670700 -0.384950 0.641583 0.641583 -0.409266 0.654826 0.613899 -0.430989 0.666074 0.587712 0.642670 -0.491454 0.567062 0.631795 -0.473846 0.592307 0.619147 -0.454041 0.619147 0.604415 -0.431725 0.647587 0.587233 -0.406546 0.677576 0.567185 -0.378123 0.708981 0.543810 -0.346061 0.741559 0.516612 -0.309967 0.774917 0.485086 -0.269492 0.808476 0.448767 -0.224384 0.841438 0.407294 -0.174554 0.872772 0.360493 -0.120164 0.901233 0.308479 -0.061696 0.925436 0.251730 0.000000 0.943989 0.191136 0.063712 0.955680 0.127957 0.127957 0.959677 0.063712 0.191136 0.955680 0.000000 0.251730 0.943989 -0.061696 0.308479 0.925436 -0.120164 0.360493 0.901233 -0.174554 0.407294 0.872772 -0.224384 0.448767 0.841438 -0.269492 0.485086 0.808476 -0.309967 0.516612 0.774917 -0.346061 0.543810 0.741559 -0.378123 0.567185 0.708981 -0.406546 0.587233 0.677576 -0.431725 0.604415 0.647587 -0.454041 0.619147 0.619147 -0.473846 0.631795 0.592307 0.607492 -0.531556 0.569524 0.595117 -0.515768 0.595117 0.580871 -0.497890 0.622362 0.564436 -0.477600 0.651272 0.545445 -0.454537 0.681806 0.523481 -0.428303 0.713838 0.498087 -0.398469 0.747130 0.468774 -0.364602 0.781291 0.435058 -0.326294 0.815734 0.396500 -0.283214 0.849643 0.352781 -0.235188 0.881953 0.303789 -0.182273 0.911367 0.249715 -0.124858 0.936433 0.191136 -0.063712 0.955680 0.129043 0.000000 0.967825 0.064799 0.064799 0.971978 0.000000 0.129043 0.967825 -0.063712 0.191136 0.955680 -0.124858 0.249715 0.936433 -0.182273 0.303789 0.911367 -0.235188 0.352781 0.881953 -0.283214 0.396500 0.849643 -0.326294 0.435058 0.815734 -0.364602 0.468774 0.781291 -0.398469 0.498087 0.747130 -0.428303 0.523481 0.713838 -0.454537 0.545445 0.681806 -0.477600 0.564436 0.651272 -0.497890 0.580871 0.622362 -0.515768 0.595117 0.595117 0.570352 -0.570352 0.570352 0.556325 -0.556325 0.596063 0.540319 -0.540319 0.623445 0.522012 -0.522012 0.652515 0.501038 -0.501038 0.683234 0.476986 -0.476986 0.715479 0.449409 -0.449409 0.749015 0.417840 -0.417840 0.783451 0.381826 -0.381826 0.818198 0.340973 -0.340973 0.852433 0.295026 -0.295026 0.885079 0.243953 -0.243953 0.914823 0.188038 -0.188038 0.940188 0.127957 -0.127957 0.959677 0.064799 -0.064799 0.971978 0.000000 0.000000 0.976187 -0.064799 0.064799 0.971978 -0.127957 0.127957 0.959677 -0.188038 0.188038 0.940188 -0.243953 0.243953 0.914823 -0.295026 0.295026 0.885079 -0.340973 0.340973 0.852433 -0.381826 0.381826 0.818198 -0.417840 0.417840 0.783451 -0.449409 0.449409 0.749015 -0.476986 0.476986 0.715479 -0.501038 0.501038 0.683234 -0.522012 0.522012 0.652515 -0.540319 0.540319 0.623445 -0.556325 0.556325 0.596063 0.531556 -0.607492 0.569524 0.515768 -0.595117 0.595117 0.497890 -0.580871 0.622362 0.477600 -0.564436 0.651272 0.454537 -0.545445 0.681806 0.428303 -0.523481 0.713838 0.398469 -0.498087 0.747130 0.364602 -0.468774 0.781291 0.326294 -0.435058 0.815734 0.283214 -0.396500 0.849643 0.235188 -0.352781 0.881953 0.182273 -0.303789 0.911367 0.124858 -0.249715 0.936433 0.063712 -0.191136 0.955680 0.000000 -0.129043 0.967825 -0.064799 -0.064799 0.971978 -0.129043 0.000000 0.967825 -0.191136 0.063712 0.955680 -0.249715 0.124858 0.936433 -0.303789 0.182273 0.911367 -0.352781 0.235188 0.881953 -0.396500 0.283214 0.849643 -0.435058 0.326294 0.815734 -0.468774 0.364602 0.781291 -0.498087 0.398469 0.747130 -0.523481 0.428303 0.713838 -0.545445 0.454537 0.681806 -0.564436 0.477600 0.651272 -0.580871 0.497890 0.622362 -0.595117 0.515768 0.595117 0.491454 -0.642670 0.567062 0.473846 -0.631795 0.592307 0.454041 -0.619147 0.619147 0.431725 -0.604415 0.647587 0.406546 -0.587233 0.677576 0.378123 -0.567185 0.708981 0.346061 -0.543810 0.741559 0.309967 -0.516612 0.774917 0.269492 -0.485086 0.808476 0.224384 -0.448767 0.841438 0.174554 -0.407294 0.872772 0.120164 -0.360493 0.901233 0.061696 -0.308479 0.925436 0.000000 -0.251730 0.943989 -0.063712 -0.191136 0.955680 -0.127957 -0.127957 0.959677 -0.191136 -0.063712 0.955680 -0.251730 0.000000 0.943989 -0.308479 0.061696 0.925436 -0.360493 0.120164 0.901233 -0.407294 0.174554 0.872772 -0.448767 0.224384 0.841438 -0.485086 0.269492 0.808476 -0.516612 0.309967 0.774917 -0.543810 0.346061 0.741559 -0.567185 0.378123 0.708981 -0.587233 0.406546 0.677576 -0.604415 0.431725 0.647587 -0.619147 0.454041 0.619147 -0.631795 0.473846 0.592307 0.450423 -0.675635 0.563029 0.430989 -0.666074 0.587712 0.409266 -0.654826 0.613899 0.384950 -0.641583 0.641583 0.357707 -0.625986 0.670700 0.327182 -0.607624 0.701105 0.293019 -0.586039 0.732548 0.254879 -0.560734 0.764637 0.212481 -0.531203 0.796804 0.165657 -0.496970 0.828283 0.114413 -0.457651 0.858096 0.059005 -0.413037 0.885079 0.000000 -0.363180 0.907951 -0.061696 -0.308479 0.925436 -0.124858 -0.249715 0.936433 -0.188038 -0.188038 0.940188 -0.249715 -0.124858 0.936433 -0.308479 -0.061696 0.925436 -0.363180 0.000000 0.907951 -0.413037 0.059005 0.885079 -0.457651 0.114413 0.858096 -0.496970 0.165657 0.828283 -0.531203 0.212481 0.796804 -0.560734 0.254879 0.764637 -0.586039 0.293019 0.732548 -0.607624 0.327182 0.701105 -0.625986 0.357707 0.670700 -0.641583 0.384950 0.641583 -0.654826 0.409266 0.613899 -0.666074 0.430989 0.587712 0.408852 -0.706199 0.557526 0.387637 -0.697747 0.581456 0.364064 -0.687676 0.606773 0.337842 -0.675684 0.633454 0.308662 -0.661418 0.661418 0.276204 -0.644477 0.690511 0.240158 -0.624410 0.720473 0.200244 -0.600732 0.750915 0.156258 -0.572947 0.781291 0.108116 -0.540582 0.810874 0.055917 -0.503254 0.838757 0.000000 -0.460734 0.863876 -0.059005 -0.413037 0.885079 -0.120164 -0.360493 0.901233 -0.182273 -0.303789 0.911367 -0.243953 -0.243953 0.914823 -0.303789 -0.182273 0.911367 -0.360493 -0.120164 0.901233 -0.413037 -0.059005 0.885079 -0.460734 0.000000 0.863876 -0.503254 0.055917 0.838757 -0.540582 0.108116 0.810874 -0.572947 0.156258 0.781291 -0.600732 0.200244 0.750915 -0.624410 0.240158 0.720473 -0.644477 0.276204 0.690511 -0.661418 0.308662 0.661418 -0.675684 0.337842 0.633454 -0.687676 0.364064 0.606773 -0.697747 0.387637 0.581456 0.367122 -0.734243 0.550682 0.344220 -0.726687 0.573700 0.318916 -0.717561 0.597968 0.290941 -0.706571 0.623445 0.260015 -0.693373 0.650037 0.225859 -0.677576 0.677576 0.188213 -0.658746 0.705799 0.146865 -0.636414 0.734324 0.101684 -0.610104 0.762630 0.052669 -0.579364 0.790042 0.000000 -0.543823 0.815734 -0.055917 -0.503254 0.838757 -0.114413 -0.457651 0.858096 -0.174554 -0.407294 0.872772 -0.235188 -0.352781 0.881953 -0.295026 -0.295026 0.885079 -0.352781 -0.235188 0.881953 -0.407294 -0.174554 0.872772 -0.457651 -0.114413 0.858096 -0.503254 -0.055917 0.838757 -0.543823 0.000000 0.815734 -0.579364 0.052669 0.790042 -0.610104 0.101684 0.762630 -0.636414 0.146865 0.734324 -0.658746 0.188213 0.705799 -0.677576 0.225859 0.677576 -0.693373 0.260015 0.650037 -0.706571 0.290941 0.623445 -0.717561 0.318916 0.597968 -0.726687 0.344220 0.573700 0.325592 -0.759714 0.542653 0.301137 -0.752842 0.564632 0.274266 -0.744435 0.587712 0.244735 -0.734205 0.611838 0.212300 -0.721819 0.636899 0.176725 -0.706902 0.662720 0.137807 -0.689037 0.689037 0.095397 -0.667781 0.715479 0.049437 -0.642685 0.741559 0.000000 -0.613328 0.766660 -0.052669 -0.579364 0.790042 -0.108116 -0.540582 0.810874 -0.165657 -0.496970 0.828283 -0.224384 -0.448767 0.841438 -0.283214 -0.396500 0.849643 -0.340973 -0.340973 0.852433 -0.396500 -0.283214 0.849643 -0.448767 -0.224384 0.841438 -0.496970 -0.165657 0.828283 -0.540582 -0.108116 0.810874 -0.579364 -0.052669 0.790042 -0.613328 0.000000 0.766660 -0.642685 0.049437 0.741559 -0.667781 0.095397 0.715479 -0.689037 0.137807 0.689037 -0.706902 0.176725 0.662720 -0.721819 0.212300 0.636899 -0.734205 0.244735 0.611838 -0.744435 0.274266 0.587712 -0.752842 0.301137 0.564632 0.284589 -0.782620 0.533604 0.258745 -0.776234 0.554453 0.230500 -0.768334 0.576250 0.199642 -0.758641 0.598927 0.165963 -0.746835 0.622362 0.129275 -0.732556 0.646373 0.089427 -0.715413 0.670700 0.046333 -0.694992 0.694992 0.000000 -0.670877 0.718797 -0.049437 -0.642685 0.741559 -0.101684 -0.610104 0.762630 -0.156258 -0.572947 0.781291 -0.212481 -0.531203 0.796804 -0.269492 -0.485086 0.808476 -0.326294 -0.435058 0.815734 -0.381826 -0.381826 0.818198 -0.435058 -0.326294 0.815734 -0.485086 -0.269492 0.808476 -0.531203 -0.212481 0.796804 -0.572947 -0.156258 0.781291 -0.610104 -0.101684 0.762630 -0.642685 -0.049437 0.741559 -0.670877 0.000000 0.718797 -0.694992 0.046333 0.694992 -0.715413 0.089427 0.670700 -0.732556 0.129275 0.646373 -0.746835 0.165963 0.622362 -0.758641 0.199642 0.598927 -0.768334 0.230500 0.576250 -0.776234 0.258745 0.554453 0.244397 -0.803019 0.523708 0.217347 -0.796941 0.543369 0.187943 -0.789360 0.563829 0.156002 -0.780008 0.585006 0.121355 -0.768579 0.606773 0.083859 -0.754735 0.628946 0.043418 -0.738109 0.651272 0.000000 -0.718320 0.673425 -0.046333 -0.694992 0.694992 -0.095397 -0.667781 0.715479 -0.146865 -0.636414 0.734324 -0.200244 -0.600732 0.750915 -0.254879 -0.560734 0.764637 -0.309967 -0.516612 0.774917 -0.364602 -0.468774 0.781291 -0.417840 -0.417840 0.783451 -0.468774 -0.364602 0.781291 -0.516612 -0.309967 0.774917 -0.560734 -0.254879 0.764637 -0.600732 -0.200244 0.750915 -0.636414 -0.146865 0.734324 -0.667781 -0.095397 0.715479 -0.694992 -0.046333 0.694992 -0.718320 0.000000 0.673425 -0.738109 0.043418 0.651272 -0.754735 0.083859 0.628946 -0.768579 0.121355 0.606773 -0.780008 0.156002 0.585006 -0.789360 0.187943 0.563829 -0.796941 0.217347 0.543369 0.205254 -0.821016 0.513135 0.177193 -0.815089 0.531580 0.146849 -0.807668 0.550682 0.114070 -0.798493 0.570352 0.078728 -0.787275 0.590456 0.040721 -0.773698 0.610815 0.000000 -0.757425 0.631188 -0.043418 -0.738109 0.651272 -0.089427 -0.715413 0.670700 -0.137807 -0.689037 0.689037 -0.188213 -0.658746 0.705799 -0.240158 -0.624410 0.720473 -0.293019 -0.586039 0.732548 -0.346061 -0.543810 0.741559 -0.398469 -0.498087 0.747130 -0.449409 -0.449409 0.749015 -0.498087 -0.398469 0.747130 -0.543810 -0.346061 0.741559 -0.586039 -0.293019 0.732548 -0.624410 -0.240158 0.720473 -0.658746 -0.188213 0.705799 -0.689037 -0.137807 0.689037 -0.715413 -0.089427 0.670700 -0.738109 -0.043418 0.651272 -0.757425 0.000000 0.631188 -0.773698 0.040721 0.610815 -0.787275 0.078728 0.590456 -0.798493 0.114070 0.570352 -0.807668 0.146849 0.550682 -0.815089 0.177193 0.531580 0.167349 -0.836745 0.502047 0.138473 -0.830841 0.519276 0.107406 -0.823447 0.537031 0.074029 -0.814317 0.555216 0.038247 -0.803180 0.573700 0.000000 -0.789743 0.592307 -0.040721 -0.773698 0.610815 -0.083859 -0.754735 0.628946 -0.129275 -0.732556 0.646373 -0.176725 -0.706902 0.662720 -0.225859 -0.677576 0.677576 -0.276204 -0.644477 0.690511 -0.327182 -0.607624 0.701105 -0.378123 -0.567185 0.708981 -0.428303 -0.523481 0.713838 -0.476986 -0.476986 0.715479 -0.523481 -0.428303 0.713838 -0.567185 -0.378123 0.708981 -0.607624 -0.327182 0.701105 -0.644477 -0.276204 0.690511 -0.677576 -0.225859 0.677576 -0.706902 -0.176725 0.662720 -0.732556 -0.129275 0.646373 -0.754735 -0.083859 0.628946 -0.773698 -0.040721 0.610815 -0.789743 0.000000 0.592307 -0.803180 0.038247 0.573700 -0.814317 0.074029 0.555216 -0.823447 0.107406 0.537031 -0.830841 0.138473 0.519276 0.130825 -0.850362 0.490593 0.101325 -0.844378 0.506627 0.069742 -0.836909 0.523068 0.035988 -0.827724 0.539820 0.000000 -0.816570 0.556753 -0.038247 -0.803180 0.573700 -0.078728 -0.787275 0.590456 -0.121355 -0.768579 0.606773 -0.165963 -0.746835 0.622362 -0.212300 -0.721819 0.636899 -0.260015 -0.693373 0.650037 -0.308662 -0.661418 0.661418 -0.357707 -0.625986 0.670700 -0.406546 -0.587233 0.677576 -0.454537 -0.545445 0.681806 -0.501038 -0.501038 0.683234 -0.545445 -0.454537 0.681806 -0.587233 -0.406546 0.677576 -0.625986 -0.357707 0.670700 -0.661418 -0.308662 0.661418 -0.693373 -0.260015 0.650037 -0.721819 -0.212300 0.636899 -0.746835 -0.165963 0.622362 -0.768579 -0.121355 0.606773 -0.787275 -0.078728 0.590456 -0.803180 -0.038247 0.573700 -0.816570 0.000000 0.556753 -0.827724 0.035988 0.539820 -0.836909 0.069742 0.523068 -0.844378 0.101325 0.506627 0.095782 -0.862038 0.478910 0.065838 -0.855894 0.493785 0.033931 -0.848274 0.508965 0.000000 -0.838961 0.524351 -0.035988 -0.827724 0.539820 -0.074029 -0.814317 0.555216 -0.114070 -0.798493 0.570352 -0.156002 -0.780008 0.585006 -0.199642 -0.758641 0.598927 -0.244735 -0.734205 0.611838 -0.290941 -0.706571 0.623445 -0.337842 -0.675684 0.633454 -0.384950 -0.641583 0.641583 -0.431725 -0.604415 0.647587 -0.477600 -0.564436 0.651272 -0.522012 -0.522012 0.652515 -0.564436 -0.477600 0.651272 -0.604415 -0.431725 0.647587 -0.641583 -0.384950 0.641583 -0.675684 -0.337842 0.633454 -0.706571 -0.290941 0.623445 -0.734205 -0.244735 0.611838 -0.758641 -0.199642 0.598927 -0.780008 -0.156002 0.585006 -0.798493 -0.114070 0.570352 -0.814317 -0.074029 0.555216 -0.827724 -0.035988 0.539820 -0.838961 0.000000 0.524351 -0.848274 0.033931 0.508965 -0.855894 0.065838 0.493785 0.062282 -0.871947 0.467114 0.032059 -0.865587 0.480882 0.000000 -0.857763 0.494863 -0.033931 -0.848274 0.508965 -0.069742 -0.836909 0.523068 -0.107406 -0.823447 0.537031 -0.146849 -0.807668 0.550682 -0.187943 -0.789360 0.563829 -0.230500 -0.768334 0.576250 -0.274266 -0.744435 0.587712 -0.318916 -0.717561 0.597968 -0.364064 -0.687676 0.606773 -0.409266 -0.654826 0.613899 -0.454041 -0.619147 0.619147 -0.497890 -0.580871 0.622362 -0.540319 -0.540319 0.623445 -0.580871 -0.497890 0.622362 -0.619147 -0.454041 0.619147 -0.654826 -0.409266 0.613899 -0.687676 -0.364064 0.606773 -0.717561 -0.318916 0.597968 -0.744435 -0.274266 0.587712 -0.768334 -0.230500 0.576250 -0.789360 -0.187943 0.563829 -0.807668 -0.146849 0.550682 -0.823447 -0.107406 0.537031 -0.836909 -0.069742 0.523068 -0.848274 -0.033931 0.508965 -0.857763 0.000000 0.494863 -0.865587 0.032059 0.480882 0.030354 -0.880263 0.455309 0.000000 -0.873649 0.468026 -0.032059 -0.865587 0.480882 -0.065838 -0.855894 0.493785 -0.101325 -0.844378 0.506627 -0.138473 -0.830841 0.519276 -0.177193 -0.815089 0.531580 -0.217347 -0.796941 0.543369 -0.258745 -0.776234 0.554453 -0.301137 -0.752842 0.564632 -0.344220 -0.726687 0.573700 -0.387637 -0.697747 0.581456 -0.430989 -0.666074 0.587712 -0.473846 -0.631795 0.592307 -0.515768 -0.595117 0.595117 -0.556325 -0.556325 0.596063 -0.595117 -0.515768 0.595117 -0.631795 -0.473846 0.592307 -0.666074 -0.430989 0.587712 -0.697747 -0.387637 0.581456 -0.726687 -0.344220 0.573700 -0.752842 -0.301137 0.564632 -0.776234 -0.258745 0.554453 -0.796941 -0.217347 0.543369 -0.815089 -0.177193 0.531580 -0.830841 -0.138473 0.519276 -0.844378 -0.101325 0.506627 -0.855894 -0.065838 0.493785 -0.865587 -0.032059 0.480882 -0.873649 0.000000 0.468026 0.898489 0.000000 0.419295 0.892121 0.030763 0.430679 0.884319 0.063166 0.442160 0.874906 0.097212 0.453655 0.863695 0.132876 0.465066 0.850496 0.170099 0.476278 0.835125 0.208781 0.487157 0.817408 0.248776 0.497553 0.797191 0.289888 0.507303 0.774356 0.331867 0.516237 0.748828 0.374414 0.524179 0.720587 0.417182 0.530959 0.689682 0.459788 0.536419 0.656230 0.501823 0.540425 0.620425 0.542872 0.542872 0.582530 0.582530 0.543695 0.542872 0.620425 0.542872 0.501823 0.656230 0.540425 0.459788 0.689682 0.536419 0.417182 0.720587 0.530959 0.374414 0.748828 0.524179 0.331867 0.774356 0.516237 0.289888 0.797191 0.507303 0.248776 0.817408 0.497553 0.208781 0.835125 0.487157 0.170099 0.850496 0.476278 0.132876 0.863695 0.465066 0.097212 0.874906 0.453655 0.063166 0.884319 0.442160 0.030763 0.892121 0.430679 0.892121 -0.030763 0.430679 0.886094 0.000000 0.443047 0.878617 0.032541 0.455579 0.869493 0.066884 0.468188 0.858515 0.103022 0.480768 0.845471 0.140912 0.493191 0.830147 0.180467 0.505307 0.812341 0.221548 0.516944 0.791870 0.263957 0.527913 0.768586 0.307435 0.538010 0.742392 0.351659 0.547025 0.713251 0.396250 0.554751 0.681205 0.440780 0.560992 0.646380 0.484785 0.565583 0.608991 0.527793 0.568392 0.569338 0.569338 0.569338 0.527793 0.608991 0.568392 0.484785 0.646380 0.565583 0.440780 0.681205 0.560992 0.396250 0.713251 0.554751 0.351659 0.742392 0.547025 0.307435 0.768586 0.538010 0.263957 0.791870 0.527913 0.221548 0.812341 0.516944 0.180467 0.830147 0.505307 0.140912 0.845471 0.493191 0.103022 0.858515 0.480768 0.066884 0.869493 0.468188 0.032541 0.878617 0.455579 0.000000 0.886094 0.443047 0.884319 -0.063166 0.442160 0.878617 -0.032541 0.455579 0.871451 0.000000 0.469243 0.862611 0.034504 0.483062 0.851867 0.070989 0.496922 0.838981 0.109432 0.510684 0.823711 0.149766 0.524179 0.805820 0.191862 0.537213 0.785092 0.235528 0.549564 0.761346 0.280496 0.560992 0.734456 0.326425 0.571244 0.704366 0.372900 0.580066 0.671109 0.419443 0.587221 0.634818 0.465533 0.592497 0.595733 0.510628 0.595733 0.554193 0.554193 0.596823 0.510628 0.595733 0.595733 0.465533 0.634818 0.592497 0.419443 0.671109 0.587221 0.372900 0.704366 0.580066 0.326425 0.734456 0.571244 0.280496 0.761346 0.560992 0.235528 0.785092 0.549564 0.191862 0.805820 0.537213 0.149766 0.823711 0.524179 0.109432 0.838981 0.510684 0.070989 0.851867 0.496922 0.034504 0.862611 0.483062 0.000000 0.871451 0.469243 -0.032541 0.878617 0.455579 0.874906 -0.097212 0.453655 0.869493 -0.066884 0.468188 0.862611 -0.034504 0.483062 0.854032 0.000000 0.498185 0.843505 0.036674 0.513438 0.830767 0.075524 0.528670 0.815542 0.116506 0.543695 0.797559 0.159512 0.558291 0.776563 0.204359 0.572204 0.752335 0.250778 0.585149 0.724714 0.298412 0.596823 0.693620 0.346810 0.606917 0.659074 0.395444 0.615135 0.621216 0.443726 0.621216 0.580313 0.491034 0.624953 0.536755 0.536755 0.626214 0.491034 0.580313 0.624953 0.443726 0.621216 0.621216 0.395444 0.659074 0.615135 0.346810 0.693620 0.606917 0.298412 0.724714 0.596823 0.250778 0.752335 0.585149 0.204359 0.776563 0.572204 0.159512 0.797559 0.558291 0.116506 0.815542 0.543695 0.075524 0.830767 0.528670 0.036674 0.843505 0.513438 0.000000 0.854032 0.498185 -0.034504 0.862611 0.483062 -0.066884 0.869493 0.468188 0.863695 -0.132876 0.465066 0.858515 -0.103022 0.480768 0.851867 -0.070989 0.496922 0.843505 -0.036674 0.513438 0.833160 0.000000 0.530193 0.820538 0.039073 0.547025 0.805333 0.080533 0.563733 0.787233 0.124300 0.580066 0.765942 0.170209 0.595733 0.741198 0.217999 0.610398 0.712800 0.267300 0.623700 0.680636 0.317630 0.635261 0.644715 0.368409 0.644715 0.605183 0.418973 0.651736 0.562338 0.468615 0.656061 0.516624 0.516624 0.657522 0.468615 0.562338 0.656061 0.418973 0.605183 0.651736 0.368409 0.644715 0.644715 0.317630 0.680636 0.635261 0.267300 0.712800 0.623700 0.217999 0.741198 0.610398 0.170209 0.765942 0.595733 0.124300 0.787233 0.580066 0.080533 0.805333 0.563733 0.039073 0.820538 0.547025 0.000000 0.833160 0.530193 -0.036674 0.843505 0.513438 -0.070989 0.851867 0.496922 -0.103022 0.858515 0.480768 0.850496 -0.170099 0.476278 0.845471 -0.140912 0.493191 0.838981 -0.109432 0.510684 0.830767 -0.075524 0.528670 0.820538 -0.039073 0.547025 0.807975 0.000000 0.565583 0.792737 0.041723 0.584122 0.774473 0.086053 0.602368 0.752839 0.132854 0.619985 0.727526 0.181882 0.636586 0.698288 0.232763 0.651736 0.664978 0.284991 0.664978 0.627586 0.337931 0.675862 0.586264 0.390843 0.683975 0.541347 0.442920 0.688987 0.493345 0.493345 0.690683 0.442920 0.541347 0.688987 0.390843 0.586264 0.683975 0.337931 0.627586 0.675862 0.284991 0.664978 0.664978 0.232763 0.698288 0.651736 0.181882 0.727526 0.636586 0.132